<VTKFile type="UnstructuredGrid" version="0.1" byte_order="LittleEndian">
  <UnstructuredGrid>
    <Piece NumberOfPoints="512" NumberOfCells="343">
     <PointData Scalars="scalars">
      <DataArray type="Float32" Name="Displacement" NumberOfComponents="3" format="ascii">
       0.0000022672   0.0000022672   0.0000022672 
       0.0000045343   0.0000045343   0.0000045343 
       0.0000045343   0.0000045343   0.0000045343 
       0.0000045343   0.0000045343   0.0000045343 
       0.0000045343   0.0000045343   0.0000045343 
       0.0000045343   0.0000045343   0.0000045343 
       0.0000045343   0.0000045343   0.0000045343 
       0.0000022672   0.0000022672   0.0000022672 
       0.0000045343   0.0000045343   0.0000045343 
       0.0000090687   0.0000090687   0.0000090687 
       0.0000090687   0.0000090687   0.0000090687 
       0.0000090687   0.0000090687   0.0000090687 
       0.0000090687   0.0000090687   0.0000090687 
       0.0000090687   0.0000090687   0.0000090687 
       0.0000090687   0.0000090687   0.0000090687 
       0.0000045343   0.0000045343   0.0000045343 
       0.0000045343   0.0000045343   0.0000045343 
       0.0000090687   0.0000090687   0.0000090687 
       0.0000090687   0.0000090687   0.0000090687 
       0.0000090687   0.0000090687   0.0000090687 
       0.0000090687   0.0000090687   0.0000090687 
       0.0000090687   0.0000090687   0.0000090687 
       0.0000090687   0.0000090687   0.0000090687 
       0.0000045343   0.0000045343   0.0000045343 
       0.0000045343   0.0000045343   0.0000045343 
       0.0000090687   0.0000090687   0.0000090687 
       0.0000090687   0.0000090687   0.0000090687 
       0.0000090687   0.0000090687   0.0000090687 
       0.0000090687   0.0000090687   0.0000090687 
       0.0000090687   0.0000090687   0.0000090687 
       0.0000090687   0.0000090687   0.0000090687 
       0.0000045343   0.0000045343   0.0000045343 
       0.0000045343   0.0000045343   0.0000045343 
       0.0000090687   0.0000090687   0.0000090687 
       0.0000090687   0.0000090687   0.0000090687 
       0.0000090687   0.0000090687   0.0000090687 
       0.0000090687   0.0000090687   0.0000090687 
       0.0000090687   0.0000090687   0.0000090687 
       0.0000090687   0.0000090687   0.0000090687 
       0.0000045343   0.0000045343   0.0000045343 
       0.0000045343   0.0000045343   0.0000045343 
       0.0000090687   0.0000090687   0.0000090687 
       0.0000090687   0.0000090687   0.0000090687 
       0.0000090687   0.0000090687   0.0000090687 
       0.0000090687   0.0000090687   0.0000090687 
       0.0000090687   0.0000090687   0.0000090687 
       0.0000090687   0.0000090687   0.0000090687 
       0.0000045343   0.0000045343   0.0000045343 
       0.0000045343   0.0000045343   0.0000045343 
       0.0000090687   0.0000090687   0.0000090687 
       0.0000090687   0.0000090687   0.0000090687 
       0.0000090687   0.0000090687   0.0000090687 
       0.0000090687   0.0000090687   0.0000090687 
       0.0000090687   0.0000090687   0.0000090687 
       0.0000090687   0.0000090687   0.0000090687 
       0.0000045343   0.0000045343   0.0000045343 
       0.0000022672   0.0000022672   0.0000022672 
       0.0000045343   0.0000045343   0.0000045343 
       0.0000045343   0.0000045343   0.0000045343 
       0.0000045343   0.0000045343   0.0000045343 
       0.0000045343   0.0000045343   0.0000045343 
       0.0000045343   0.0000045343   0.0000045343 
       0.0000045343   0.0000045343   0.0000045343 
       0.0000022672   0.0000022672   0.0000022672 
       0.0000085297   0.0000085299   1.4429018466 
       0.0000083335   0.0000091114   1.4429015340 
       0.0000086466   0.0000097000   1.4429024336 
       0.0000087479   0.0000098326   1.4429023072 
       0.0000087543   0.0000098326   1.4429023081 
       0.0000086412   0.0000097000   1.4429024347 
       0.0000083371   0.0000091114   1.4429015313 
       0.0000085283   0.0000085299   1.4429018361 
       0.0000091130   0.0000083362   1.4429015340 
       0.0000084245   0.0000084329   1.4429028475 
       0.0000088629   0.0000090538   1.4429035466 
       0.0000089471   0.0000091779   1.4429032815 
       0.0000089737   0.0000091779   1.4429032940 
       0.0000088404   0.0000090538   1.4429035747 
       0.0000084394   0.0000084329   1.4429028698 
       0.0000091079   0.0000083362   1.4429015317 
       0.0000097024   0.0000086448   1.4429024336 
       0.0000090422   0.0000088527   1.4429035466 
       0.0000095325   0.0000095180   1.4429046024 
       0.0000096098   0.0000096482   1.4429042794 
       0.0000096470   0.0000096482   1.4429043034 
       0.0000095009   0.0000095180   1.4429046575 
       0.0000090630   0.0000088527   1.4429035939 
       0.0000096952   0.0000086448   1.4429024383 
       0.0000098346   0.0000087520   1.4429023072 
       0.0000091664   0.0000089614   1.4429032815 
       0.0000096618   0.0000096297   1.4429042794 
       0.0000097377   0.0000097572   1.4429043020 
       0.0000097737   0.0000097572   1.4429043337 
       0.0000096313   0.0000096297   1.4429043527 
       0.0000091864   0.0000089614   1.4429033456 
       0.0000098275   0.0000087520   1.4429023165 
       0.0000098334   0.0000087520   1.4429023081 
       0.0000091692   0.0000089614   1.4429032940 
       0.0000096573   0.0000096297   1.4429043034 
       0.0000097429   0.0000097572   1.4429043337 
       0.0000097678   0.0000097572   1.4429043654 
       0.0000096357   0.0000096297   1.4429043767 
       0.0000091834   0.0000089614   1.4429033581 
       0.0000098283   0.0000087520   1.4429023175 
       0.0000096998   0.0000086448   1.4429024347 
       0.0000090486   0.0000088527   1.4429035747 
       0.0000095218   0.0000095180   1.4429046575 
       0.0000096215   0.0000096482   1.4429043527 
       0.0000096346   0.0000096482   1.4429043767 
       0.0000095107   0.0000095180   1.4429047126 
       0.0000090558   0.0000088527   1.4429036221 
       0.0000096970   0.0000086448   1.4429024395 
       0.0000091105   0.0000083362   1.4429015313 
       0.0000084303   0.0000084329   1.4429028698 
       0.0000088530   0.0000090538   1.4429035939 
       0.0000089578   0.0000091779   1.4429033456 
       0.0000089620   0.0000091779   1.4429033581 
       0.0000088494   0.0000090538   1.4429036221 
       0.0000084327   0.0000084329   1.4429028922 
       0.0000091095   0.0000083362   1.4429015290 
       0.0000085287   0.0000085299   1.4429018361 
       0.0000083347   0.0000091114   1.4429015317 
       0.0000086438   0.0000097000   1.4429024383 
       0.0000087504   0.0000098326   1.4429023165 
       0.0000087510   0.0000098326   1.4429023175 
       0.0000086432   0.0000097000   1.4429024395 
       0.0000083350   0.0000091114   1.4429015290 
       0.0000085284   0.0000085299   1.4429018256 
       0.0000096410   0.0000096414   2.8857980165 
       0.0000097823   0.0000099160   2.8857980577 
       0.0000098210   0.0000101640   2.8857987592 
       0.0000098412   0.0000103232   2.8857983406 
       0.0000098521   0.0000103232   2.8857983331 
       0.0000098118   0.0000101640   2.8857987396 
       0.0000097884   0.0000099160   2.8857980326 
       0.0000096385   0.0000096414   2.8857979912 
       0.0000099185   0.0000097870   2.8857980577 
       0.0000100480   0.0000100623   2.8857986856 
       0.0000101033   0.0000102943   2.8857990843 
       0.0000100643   0.0000104472   2.8857989091 
       0.0000101091   0.0000104472   2.8857988875 
       0.0000100652   0.0000102943   2.8857990319 
       0.0000100732   0.0000100623   2.8857986315 
       0.0000099098   0.0000097870   2.8857980295 
       0.0000101677   0.0000098181   2.8857987592 
       0.0000102747   0.0000100861   2.8857990843 
       0.0000103583   0.0000103344   2.8857994285 
       0.0000102852   0.0000105005   2.8857991806 
       0.0000103474   0.0000105005   2.8857991435 
       0.0000103055   0.0000103344   2.8857993401 
       0.0000103095   0.0000100861   2.8857989982 
       0.0000101556   0.0000098181   2.8857987249 
       0.0000103260   0.0000098483   2.8857983406 
       0.0000104280   0.0000100885   2.8857989091 
       0.0000105219   0.0000103186   2.8857991806 
       0.0000104454   0.0000104780   2.8857991383 
       0.0000105030   0.0000104780   2.8857990900 
       0.0000104720   0.0000103186   2.8857990662 
       0.0000104603   0.0000100885   2.8857987995 
       0.0000103142   0.0000098483   2.8857983013 
       0.0000103239   0.0000098483   2.8857983331 
       0.0000104327   0.0000100885   2.8857988875 
       0.0000105135   0.0000103186   2.8857991435 
       0.0000104533   0.0000104780   2.8857990900 
       0.0000104963   0.0000104780   2.8857990418 
       0.0000104784   0.0000103186   2.8857990291 
       0.0000104544   0.0000100885   2.8857987779 
       0.0000103154   0.0000098483   2.8857982938 
       0.0000101630   0.0000098181   2.8857987396 
       0.0000102860   0.0000100861   2.8857990319 
       0.0000103390   0.0000103344   2.8857993401 
       0.0000103055   0.0000105005   2.8857990662 
       0.0000103236   0.0000105005   2.8857990291 
       0.0000103225   0.0000103344   2.8857992517 
       0.0000102962   0.0000100861   2.8857989458 
       0.0000101586   0.0000098181   2.8857987053 
       0.0000099140   0.0000097870   2.8857980326 
       0.0000100583   0.0000100623   2.8857986315 
       0.0000100857   0.0000102943   2.8857989982 
       0.0000100832   0.0000104472   2.8857987995 
       0.0000100885   0.0000104472   2.8857987779 
       0.0000100811   0.0000102943   2.8857989458 
       0.0000100611   0.0000100623   2.8857985774 
       0.0000099127   0.0000097870   2.8857980044 
       0.0000096391   0.0000096414   2.8857979912 
       0.0000097845   0.0000099160   2.8857980295 
       0.0000098159   0.0000101640   2.8857987249 
       0.0000098456   0.0000103232   2.8857983013 
       0.0000098461   0.0000103232   2.8857982938 
       0.0000098154   0.0000101640   2.8857987053 
       0.0000097847   0.0000099160   2.8857980044 
       0.0000096388   0.0000096414   2.8857979659 
       0.0000104962   0.0000104971   4.3286920906 
       0.0000105728   0.0000108006   4.3286940028 
       0.0000106533   0.0000109841   4.3286940954 
       0.0000106530   0.0000110915   4.3286936435 
       0.0000106653   0.0000110915   4.3286936394 
       0.0000106429   0.0000109841   4.3286940824 
       0.0000105797   0.0000108006   4.3286939801 
       0.0000104935   0.0000104971   4.3286920568 
       0.0000108030   0.0000105784   4.3286940028 
       0.0000107565   0.0000107728   4.3286938934 
       0.0000109011   0.0000109449   4.3286940885 
       0.0000108288   0.0000110408   4.3286943678 
       0.0000108789   0.0000110408   4.3286943713 
       0.0000108586   0.0000109449   4.3286940939 
       0.0000107846   0.0000107728   4.3286938886 
       0.0000107933   0.0000105784   4.3286939793 
       0.0000109876   0.0000106504   4.3286940954 
       0.0000109233   0.0000108824   4.3286940885 
       0.0000111048   0.0000110795   4.3286941975 
       0.0000109919   0.0000111893   4.3286947058 
       0.0000110586   0.0000111893   4.3286947211 
       0.0000110478   0.0000110795   4.3286942307 
       0.0000109610   0.0000108824   4.3286941105 
       0.0000109744   0.0000106504   4.3286940813 
       0.0000110935   0.0000106613   4.3286936435 
       0.0000110203   0.0000108562   4.3286943678 
       0.0000112101   0.0000110283   4.3286947058 
       0.0000110931   0.0000111284   4.3286953042 
       0.0000111563   0.0000111284   4.3286953294 
       0.0000111580   0.0000110283   4.3286947622 
       0.0000110533   0.0000108562   4.3286944116 
       0.0000110811   0.0000106613   4.3286936363 
       0.0000110910   0.0000106613   4.3286936394 
       0.0000110261   0.0000108562   4.3286943713 
       0.0000111994   0.0000110283   4.3286947211 
       0.0000111005   0.0000111284   4.3286953294 
       0.0000111196   0.0000111284   4.3286953546 
       0.0000111637   0.0000110283   4.3286947776 
       0.0000110456   0.0000108562   4.3286944152 
       0.0000110824   0.0000106613   4.3286936321 
       0.0000109817   0.0000106504   4.3286940824 
       0.0000109370   0.0000108824   4.3286940939 
       0.0000110808   0.0000110795   4.3286942307 
       0.0000110159   0.0000111893   4.3286947622 
       0.0000110327   0.0000111893   4.3286947776 
       0.0000110679   0.0000110795   4.3286942638 
       0.0000109440   0.0000108824   4.3286941159 
       0.0000109780   0.0000106504   4.3286940683 
       0.0000107974   0.0000105784   4.3286939801 
       0.0000107692   0.0000107728   4.3286938886 
       0.0000108794   0.0000109449   4.3286941105 
       0.0000108524   0.0000110408   4.3286944116 
       0.0000108527   0.0000110408   4.3286944152 
       0.0000108787   0.0000109449   4.3286941159 
       0.0000107695   0.0000107728   4.3286938838 
       0.0000107968   0.0000105784   4.3286939567 
       0.0000104940   0.0000104971   4.3286920568 
       0.0000105755   0.0000108006   4.3286939793 
       0.0000106471   0.0000109841   4.3286940813 
       0.0000106584   0.0000110915   4.3286936363 
       0.0000106581   0.0000110915   4.3286936321 
       0.0000106473   0.0000109841   4.3286940683 
       0.0000105751   0.0000108006   4.3286939567 
       0.0000104939   0.0000104971   4.3286920230 
       0.0000109678   0.0000109691   5.7715870886 
       0.0000110604   0.0000112638   5.7715898047 
       0.0000111333   0.0000114304   5.7715897286 
       0.0000111387   0.0000115218   5.7715890456 
       0.0000111493   0.0000115218   5.7715890408 
       0.0000111243   0.0000114304   5.7715897134 
       0.0000110663   0.0000112638   5.7715897771 
       0.0000109654   0.0000109691   5.7715870455 
       0.0000112651   0.0000110657   5.7715898047 
       0.0000112532   0.0000112675   5.7715890804 
       0.0000113771   0.0000114198   5.7715896362 
       0.0000113162   0.0000114997   5.7715896481 
       0.0000113588   0.0000114997   5.7715896503 
       0.0000113409   0.0000114198   5.7715896380 
       0.0000112771   0.0000112675   5.7715890700 
       0.0000112568   0.0000110657   5.7715897740 
       0.0000114323   0.0000111314   5.7715897286 
       0.0000114017   0.0000113620   5.7715896362 
       0.0000115590   0.0000115396   5.7715895035 
       0.0000114619   0.0000116339   5.7715895532 
       0.0000115165   0.0000116339   5.7715895549 
       0.0000115127   0.0000115396   5.7715895046 
       0.0000114322   0.0000113620   5.7715896270 
       0.0000114216   0.0000111314   5.7715897015 
       0.0000115221   0.0000111464   5.7715890456 
       0.0000114840   0.0000113401   5.7715896481 
       0.0000116478   0.0000114923   5.7715895532 
       0.0000115505   0.0000115765   5.7715896872 
       0.0000115932   0.0000115765   5.7715896851 
       0.0000116105   0.0000114923   5.7715895455 
       0.0000115080   0.0000113401   5.7715896316 
       0.0000115130   0.0000111464   5.7715890183 
       0.0000115196   0.0000111464   5.7715890408 
       0.0000114899   0.0000113401   5.7715896503 
       0.0000116375   0.0000114923   5.7715895549 
       0.0000115606   0.0000115765   5.7715896851 
       0.0000115841   0.0000115765   5.7715896830 
       0.0000116190   0.0000114923   5.7715895472 
       0.0000115006   0.0000113401   5.7715896339 
       0.0000115147   0.0000111464   5.7715890135 
       0.0000114265   0.0000111314   5.7715897134 
       0.0000114157   0.0000113620   5.7715896380 
       0.0000115353   0.0000115396   5.7715895046 
       0.0000114875   0.0000116339   5.7715895455 
       0.0000114869   0.0000116339   5.7715895472 
       0.0000115346   0.0000115396   5.7715895057 
       0.0000114153   0.0000113620   5.7715896288 
       0.0000114257   0.0000111314   5.7715896863 
       0.0000112596   0.0000110657   5.7715897771 
       0.0000112659   0.0000112675   5.7715890700 
       0.0000113553   0.0000114198   5.7715896270 
       0.0000113400   0.0000114997   5.7715896316 
       0.0000113328   0.0000114997   5.7715896339 
       0.0000113613   0.0000114198   5.7715896288 
       0.0000112617   0.0000112675   5.7715890596 
       0.0000112606   0.0000110657   5.7715897463 
       0.0000109655   0.0000109691   5.7715870455 
       0.0000110630   0.0000112638   5.7715897740 
       0.0000111270   0.0000114304   5.7715897015 
       0.0000111442   0.0000115218   5.7715890183 
       0.0000111418   0.0000115218   5.7715890135 
       0.0000111289   0.0000114304   5.7715896863 
       0.0000110616   0.0000112638   5.7715897463 
       0.0000109659   0.0000109691   5.7715870023 
       0.0000111766   0.0000111784   7.2144837840 
       0.0000112793   0.0000114877   7.2144841973 
       0.0000113501   0.0000116544   7.2144847196 
       0.0000113601   0.0000117463   7.2144839123 
       0.0000113674   0.0000117463   7.2144838987 
       0.0000113439   0.0000116544   7.2144846828 
       0.0000112834   0.0000114877   7.2144841470 
       0.0000111750   0.0000111784   7.2144837279 
       0.0000114876   0.0000112838   7.2144841973 
       0.0000114835   0.0000114939   7.2144842259 
       0.0000115934   0.0000116513   7.2144842870 
       0.0000115514   0.0000117326   7.2144841136 
       0.0000115798   0.0000117326   7.2144840843 
       0.0000115693   0.0000116513   7.2144842140 
       0.0000114995   0.0000114939   7.2144841444 
       0.0000114820   0.0000112838   7.2144841434 
       0.0000116544   0.0000113496   7.2144847196 
       0.0000116394   0.0000115844   7.2144842870 
       0.0000117727   0.0000117622   7.2144843378 
       0.0000117040   0.0000118558   7.2144845666 
       0.0000117370   0.0000118558   7.2144845302 
       0.0000117445   0.0000117622   7.2144842487 
       0.0000116579   0.0000115844   7.2144841932 
       0.0000116478   0.0000113496   7.2144846673 
       0.0000117448   0.0000113663   7.2144839123 
       0.0000117237   0.0000115682   7.2144841136 
       0.0000118606   0.0000117235   7.2144845666 
       0.0000117946   0.0000118083   7.2144854598 
       0.0000118154   0.0000118083   7.2144854227 
       0.0000118429   0.0000117235   7.2144844760 
       0.0000117353   0.0000115682   7.2144840194 
       0.0000117404   0.0000113663   7.2144838622 
       0.0000117428   0.0000113663   7.2144838987 
       0.0000117288   0.0000115682   7.2144840843 
       0.0000118523   0.0000117235   7.2144845302 
       0.0000118043   0.0000118083   7.2144854227 
       0.0000118048   0.0000118083   7.2144853855 
       0.0000118513   0.0000117235   7.2144844396 
       0.0000117293   0.0000115682   7.2144839901 
       0.0000117420   0.0000113663   7.2144838486 
       0.0000116496   0.0000113496   7.2144846828 
       0.0000116512   0.0000115844   7.2144842140 
       0.0000117531   0.0000117622   7.2144842487 
       0.0000117261   0.0000118558   7.2144844760 
       0.0000117134   0.0000118558   7.2144844396 
       0.0000117637   0.0000117622   7.2144841597 
       0.0000116439   0.0000115844   7.2144841202 
       0.0000116516   0.0000113496   7.2144846306 
       0.0000114830   0.0000112838   7.2144841470 
       0.0000114942   0.0000114939   7.2144841444 
       0.0000115751   0.0000116513   7.2144841932 
       0.0000115716   0.0000117326   7.2144840194 
       0.0000115576   0.0000117326   7.2144839901 
       0.0000115867   0.0000116513   7.2144841202 
       0.0000114863   0.0000114939   7.2144840630 
       0.0000114854   0.0000112838   7.2144840932 
       0.0000111747   0.0000111784   7.2144837279 
       0.0000112815   0.0000114877   7.2144841434 
       0.0000113447   0.0000116544   7.2144846673 
       0.0000113648   0.0000117463   7.2144838622 
       0.0000113610   0.0000117463   7.2144838486 
       0.0000113478   0.0000116544   7.2144846306 
       0.0000112793   0.0000114877   7.2144840932 
       0.0000111754   0.0000111784   7.2144836718 
       0.0000111646   0.0000111667   8.6573792761 
       0.0000112489   0.0000114666   8.6573792959 
       0.0000113251   0.0000116653   8.6573802574 
       0.0000113481   0.0000117607   8.6573795928 
       0.0000113519   0.0000117607   8.6573795886 
       0.0000113219   0.0000116653   8.6573802421 
       0.0000112510   0.0000114666   8.6573792629 
       0.0000111637   0.0000111667   8.6573792166 
       0.0000114652   0.0000112524   8.6573792959 
       0.0000114781   0.0000114845   8.6573806732 
       0.0000115666   0.0000116748   8.6573800532 
       0.0000115565   0.0000117637   8.6573796503 
       0.0000115706   0.0000117637   8.6573796642 
       0.0000115546   0.0000116748   8.6573800812 
       0.0000114861   0.0000114845   8.6573806826 
       0.0000114624   0.0000112524   8.6573792601 
       0.0000116637   0.0000113261   8.6573802574 
       0.0000116682   0.0000115635   8.6573800532 
       0.0000117665   0.0000117636   8.6573798997 
       0.0000117395   0.0000118604   8.6573799982 
       0.0000117540   0.0000118604   8.6573800228 
       0.0000117542   0.0000117636   8.6573799532 
       0.0000116763   0.0000115635   8.6573800888 
       0.0000116608   0.0000113261   8.6573802333 
       0.0000117580   0.0000113525   8.6573795928 
       0.0000117595   0.0000115661   8.6573796503 
       0.0000118590   0.0000117495   8.6573799982 
       0.0000118351   0.0000118405   8.6573803987 
       0.0000118399   0.0000118405   8.6573804270 
       0.0000118548   0.0000117495   8.6573800609 
       0.0000117622   0.0000115661   8.6573796952 
       0.0000117568   0.0000113525   8.6573795733 
       0.0000117567   0.0000113525   8.6573795886 
       0.0000117627   0.0000115661   8.6573796642 
       0.0000118537   0.0000117495   8.6573800228 
       0.0000118410   0.0000118405   8.6573804270 
       0.0000118335   0.0000118405   8.6573804554 
       0.0000118600   0.0000117495   8.6573800855 
       0.0000117584   0.0000115661   8.6573797092 
       0.0000117579   0.0000113525   8.6573795690 
       0.0000116607   0.0000113261   8.6573802421 
       0.0000116756   0.0000115635   8.6573800812 
       0.0000117540   0.0000117636   8.6573799532 
       0.0000117536   0.0000118604   8.6573800609 
       0.0000117387   0.0000118604   8.6573800855 
       0.0000117665   0.0000117636   8.6573800068 
       0.0000116673   0.0000115635   8.6573801167 
       0.0000116633   0.0000113261   8.6573802181 
       0.0000114622   0.0000112524   8.6573792629 
       0.0000114848   0.0000114845   8.6573806826 
       0.0000115549   0.0000116748   8.6573800888 
       0.0000115693   0.0000117637   8.6573796952 
       0.0000115564   0.0000117637   8.6573797092 
       0.0000115657   0.0000116748   8.6573801167 
       0.0000114775   0.0000114845   8.6573806920 
       0.0000114645   0.0000112524   8.6573792271 
       0.0000111632   0.0000111667   8.6573792166 
       0.0000112502   0.0000114666   8.6573792601 
       0.0000113215   0.0000116653   8.6573802333 
       0.0000113509   0.0000117607   8.6573795733 
       0.0000113476   0.0000117607   8.6573795690 
       0.0000113243   0.0000116653   8.6573802181 
       0.0000112483   0.0000114666   8.6573792271 
       0.0000111638   0.0000111667   8.6573791572 
       0.0000106222   0.0000106244  10.1002731840 
       0.0000108874   0.0000112229  10.1002732905 
       0.0000109877   0.0000114082  10.1002749301 
       0.0000110254   0.0000115097  10.1002735218 
       0.0000110262   0.0000115097  10.1002735093 
       0.0000109870   0.0000114082  10.1002748944 
       0.0000108878   0.0000112229  10.1002732391 
       0.0000106220   0.0000106244  10.1002731065 
       0.0000112207   0.0000108900  10.1002732905 
       0.0000113060   0.0000113093  10.1002744219 
       0.0000113820   0.0000115175  10.1002739385 
       0.0000114060   0.0000116122  10.1002739015 
       0.0000114090   0.0000116122  10.1002738840 
       0.0000113795   0.0000115175  10.1002738926 
       0.0000113076   0.0000113093  10.1002743625 
       0.0000112200   0.0000108900  10.1002732348 
       0.0000114058   0.0000109898  10.1002749301 
       0.0000115141   0.0000113834  10.1002739385 
       0.0000115825   0.0000115842  10.1002743376 
       0.0000115980   0.0000116820  10.1002743122 
       0.0000116008   0.0000116820  10.1002742914 
       0.0000115802   0.0000115842  10.1002742844 
       0.0000115156   0.0000113834  10.1002738757 
       0.0000114051   0.0000109898  10.1002748771 
       0.0000115067   0.0000110282  10.1002735218 
       0.0000116092   0.0000114101  10.1002739015 
       0.0000116791   0.0000116022  10.1002743122 
       0.0000116953   0.0000116984  10.1002743039 
       0.0000116956   0.0000116984  10.1002742820 
       0.0000116787   0.0000116021  10.1002742567 
       0.0000116094   0.0000114101  10.1002738375 
       0.0000115066   0.0000110282  10.1002734713 
       0.0000115063   0.0000110282  10.1002735093 
       0.0000116099   0.0000114101  10.1002738840 
       0.0000116777   0.0000116022  10.1002742914 
       0.0000116966   0.0000116984  10.1002742820 
       0.0000116940   0.0000116984  10.1002742600 
       0.0000116799   0.0000116021  10.1002742359 
       0.0000116084   0.0000114101  10.1002738201 
       0.0000115068   0.0000110282  10.1002734588 
       0.0000114047   0.0000109898  10.1002748944 
       0.0000115155   0.0000113834  10.1002738926 
       0.0000115793   0.0000115842  10.1002742844 
       0.0000116010   0.0000116820  10.1002742567 
       0.0000115969   0.0000116820  10.1002742359 
       0.0000115827   0.0000115842  10.1002742312 
       0.0000115132   0.0000113834  10.1002738298 
       0.0000114055   0.0000109898  10.1002748413 
       0.0000112195   0.0000108900  10.1002732391 
       0.0000113072   0.0000113093  10.1002743625 
       0.0000113789   0.0000115175  10.1002738757 
       0.0000114086   0.0000116122  10.1002738375 
       0.0000114052   0.0000116122  10.1002738201 
       0.0000113817   0.0000115175  10.1002738298 
       0.0000113052   0.0000113093  10.1002743031 
       0.0000112202   0.0000108900  10.1002731833 
       0.0000106214   0.0000106244  10.1002731065 
       0.0000108872   0.0000112229  10.1002732348 
       0.0000109864   0.0000114082  10.1002748771 
       0.0000110256   0.0000115097  10.1002734713 
       0.0000110247   0.0000115097  10.1002734588 
       0.0000109871   0.0000114082  10.1002748413 
       0.0000108867   0.0000112229  10.1002731833 
       0.0000106215   0.0000106244  10.1002730290 
      </DataArray>
    </PointData>
    <Points>
      <DataArray type="Float32" NumberOfComponents="3" format="ascii">
       0.0000000000   0.0000000000   0.0000000000 
       0.1428571492   0.0000000000   0.0000000000 
       0.2857142985   0.0000000000   0.0000000000 
       0.4285714626   0.0000000000   0.0000000000 
       0.5714285970   0.0000000000   0.0000000000 
       0.7142857313   0.0000000000   0.0000000000 
       0.8571429253   0.0000000000   0.0000000000 
       1.0000000000   0.0000000000   0.0000000000 
       0.0000000000   0.1428571492   0.0000000000 
       0.1428571492   0.1428571492   0.0000000000 
       0.2857142985   0.1428571492   0.0000000000 
       0.4285714626   0.1428571492   0.0000000000 
       0.5714285970   0.1428571492   0.0000000000 
       0.7142857313   0.1428571492   0.0000000000 
       0.8571429253   0.1428571492   0.0000000000 
       1.0000000000   0.1428571492   0.0000000000 
       0.0000000000   0.2857142985   0.0000000000 
       0.1428571492   0.2857142985   0.0000000000 
       0.2857142985   0.2857142985   0.0000000000 
       0.4285714626   0.2857142985   0.0000000000 
       0.5714285970   0.2857142985   0.0000000000 
       0.7142857313   0.2857142985   0.0000000000 
       0.8571429253   0.2857142985   0.0000000000 
       1.0000000000   0.2857142985   0.0000000000 
       0.0000000000   0.4285714626   0.0000000000 
       0.1428571492   0.4285714626   0.0000000000 
       0.2857142985   0.4285714626   0.0000000000 
       0.4285714626   0.4285714626   0.0000000000 
       0.5714285970   0.4285714626   0.0000000000 
       0.7142857313   0.4285714626   0.0000000000 
       0.8571429253   0.4285714626   0.0000000000 
       1.0000000000   0.4285714626   0.0000000000 
       0.0000000000   0.5714285970   0.0000000000 
       0.1428571492   0.5714285970   0.0000000000 
       0.2857142985   0.5714285970   0.0000000000 
       0.4285714626   0.5714285970   0.0000000000 
       0.5714285970   0.5714285970   0.0000000000 
       0.7142857313   0.5714285970   0.0000000000 
       0.8571429253   0.5714285970   0.0000000000 
       1.0000000000   0.5714285970   0.0000000000 
       0.0000000000   0.7142857313   0.0000000000 
       0.1428571492   0.7142857313   0.0000000000 
       0.2857142985   0.7142857313   0.0000000000 
       0.4285714626   0.7142857313   0.0000000000 
       0.5714285970   0.7142857313   0.0000000000 
       0.7142857313   0.7142857313   0.0000000000 
       0.8571429253   0.7142857313   0.0000000000 
       1.0000000000   0.7142857313   0.0000000000 
       0.0000000000   0.8571429253   0.0000000000 
       0.1428571492   0.8571429253   0.0000000000 
       0.2857142985   0.8571429253   0.0000000000 
       0.4285714626   0.8571429253   0.0000000000 
       0.5714285970   0.8571429253   0.0000000000 
       0.7142857313   0.8571429253   0.0000000000 
       0.8571429253   0.8571429253   0.0000000000 
       1.0000000000   0.8571429253   0.0000000000 
       0.0000000000   1.0000000000   0.0000000000 
       0.1428571492   1.0000000000   0.0000000000 
       0.2857142985   1.0000000000   0.0000000000 
       0.4285714626   1.0000000000   0.0000000000 
       0.5714285970   1.0000000000   0.0000000000 
       0.7142857313   1.0000000000   0.0000000000 
       0.8571429253   1.0000000000   0.0000000000 
       1.0000000000   1.0000000000   0.0000000000 
       0.0000000000   0.0000000000   0.1428571492 
       0.1428571492   0.0000000000   0.1428571492 
       0.2857142985   0.0000000000   0.1428571492 
       0.4285714626   0.0000000000   0.1428571492 