<VTKFile type="UnstructuredGrid" version="0.1" byte_order="LittleEndian">
  <UnstructuredGrid>
    <Piece NumberOfPoints="1000" NumberOfCells="729">
     <PointData Scalars="scalars">
      <DataArray type="Float32" Name="Displacement" NumberOfComponents="3" format="ascii">
       0.0000018519   0.0000018519   0.0000018519 
       0.0000037038   0.0000037038   0.0000037038 
       0.0000037038   0.0000037038   0.0000037038 
       0.0000037038   0.0000037038   0.0000037038 
       0.0000037038   0.0000037038   0.0000037038 
       0.0000037038   0.0000037038   0.0000037038 
       0.0000037038   0.0000037038   0.0000037038 
       0.0000037038   0.0000037038   0.0000037038 
       0.0000037038   0.0000037038   0.0000037038 
       0.0000018519   0.0000018519   0.0000018519 
       0.0000037038   0.0000037038   0.0000037038 
       0.0000074076   0.0000074076   0.0000074076 
       0.0000074076   0.0000074076   0.0000074076 
       0.0000074076   0.0000074076   0.0000074076 
       0.0000074076   0.0000074076   0.0000074076 
       0.0000074076   0.0000074076   0.0000074076 
       0.0000074076   0.0000074076   0.0000074076 
       0.0000074076   0.0000074076   0.0000074076 
       0.0000074076   0.0000074076   0.0000074076 
       0.0000037038   0.0000037038   0.0000037038 
       0.0000037038   0.0000037038   0.0000037038 
       0.0000074076   0.0000074076   0.0000074076 
       0.0000074076   0.0000074076   0.0000074076 
       0.0000074076   0.0000074076   0.0000074076 
       0.0000074076   0.0000074076   0.0000074076 
       0.0000074076   0.0000074076   0.0000074076 
       0.0000074076   0.0000074076   0.0000074076 
       0.0000074076   0.0000074076   0.0000074076 
       0.0000074076   0.0000074076   0.0000074076 
       0.0000037038   0.0000037038   0.0000037038 
       0.0000037038   0.0000037038   0.0000037038 
       0.0000074076   0.0000074076   0.0000074076 
       0.0000074076   0.0000074076   0.0000074076 
       0.0000074076   0.0000074076   0.0000074076 
       0.0000074076   0.0000074076   0.0000074076 
       0.0000074076   0.0000074076   0.0000074076 
       0.0000074076   0.0000074076   0.0000074076 
       0.0000074076   0.0000074076   0.0000074076 
       0.0000074076   0.0000074076   0.0000074076 
       0.0000037038   0.0000037038   0.0000037038 
       0.0000037038   0.0000037038   0.0000037038 
       0.0000074076   0.0000074076   0.0000074076 
       0.0000074076   0.0000074076   0.0000074076 
       0.0000074076   0.0000074076   0.0000074076 
       0.0000074076   0.0000074076   0.0000074076 
       0.0000074076   0.0000074076   0.0000074076 
       0.0000074076   0.0000074076   0.0000074076 
       0.0000074076   0.0000074076   0.0000074076 
       0.0000074076   0.0000074076   0.0000074076 
       0.0000037038   0.0000037038   0.0000037038 
       0.0000037038   0.0000037038   0.0000037038 
       0.0000074076   0.0000074076   0.0000074076 
       0.0000074076   0.0000074076   0.0000074076 
       0.0000074076   0.0000074076   0.0000074076 
       0.0000074076   0.0000074076   0.0000074076 
       0.0000074076   0.0000074076   0.0000074076 
       0.0000074076   0.0000074076   0.0000074076 
       0.0000074076   0.0000074076   0.0000074076 
       0.0000074076   0.0000074076   0.0000074076 
       0.0000037038   0.0000037038   0.0000037038 
       0.0000037038   0.0000037038   0.0000037038 
       0.0000074076   0.0000074076   0.0000074076 
       0.0000074076   0.0000074076   0.0000074076 
       0.0000074076   0.0000074076   0.0000074076 
       0.0000074076   0.0000074076   0.0000074076 
       0.0000074076   0.0000074076   0.0000074076 
       0.0000074076   0.0000074076   0.0000074076 
       0.0000074076   0.0000074076   0.0000074076 
       0.0000074076   0.0000074076   0.0000074076 
       0.0000037038   0.0000037038   0.0000037038 
       0.0000037038   0.0000037038   0.0000037038 
       0.0000074076   0.0000074076   0.0000074076 
       0.0000074076   0.0000074076   0.0000074076 
       0.0000074076   0.0000074076   0.0000074076 
       0.0000074076   0.0000074076   0.0000074076 
       0.0000074076   0.0000074076   0.0000074076 
       0.0000074076   0.0000074076   0.0000074076 
       0.0000074076   0.0000074076   0.0000074076 
       0.0000074076   0.0000074076   0.0000074076 
       0.0000037038   0.0000037038   0.0000037038 
       0.0000037038   0.0000037038   0.0000037038 
       0.0000074076   0.0000074076   0.0000074076 
       0.0000074076   0.0000074076   0.0000074076 
       0.0000074076   0.0000074076   0.0000074076 
       0.0000074076   0.0000074076   0.0000074076 
       0.0000074076   0.0000074076   0.0000074076 
       0.0000074076   0.0000074076   0.0000074076 
       0.0000074076   0.0000074076   0.0000074076 
       0.0000074076   0.0000074076   0.0000074076 
       0.0000037038   0.0000037038   0.0000037038 
       0.0000018519   0.0000018519   0.0000018519 
       0.0000037038   0.0000037038   0.0000037038 
       0.0000037038   0.0000037038   0.0000037038 
       0.0000037038   0.0000037038   0.0000037038 
       0.0000037038   0.0000037038   0.0000037038 
       0.0000037038   0.0000037038   0.0000037038 
       0.0000037038   0.0000037038   0.0000037038 
       0.0000037038   0.0000037038   0.0000037038 
       0.0000037038   0.0000037038   0.0000037038 
       0.0000018519   0.0000018519   0.0000018519 
       0.0000070489   0.0000070489   1.1222554037 
       0.0000068755   0.0000074834   1.1222567587 
       0.0000071290   0.0000079643   1.1222571787 
       0.0000072361   0.0000080877   1.1222578661 
       0.0000072800   0.0000081288   1.1222577652 
       0.0000072800   0.0000081288   1.1222577659 
       0.0000072361   0.0000080877   1.1222578676 
       0.0000071290   0.0000079643   1.1222571795 
       0.0000068755   0.0000074834   1.1222567573 
       0.0000070489   0.0000070489   1.1222553988 
       0.0000074834   0.0000068755   1.1222567587 
       0.0000069312   0.0000069312   1.1222584495 
       0.0000072712   0.0000074388   1.1222589198 
       0.0000073827   0.0000075554   1.1222590121 
       0.0000074357   0.0000075954   1.1222588927 
       0.0000074357   0.0000075954   1.1222588989 
       0.0000073827   0.0000075554   1.1222590276 
       0.0000072712   0.0000074388   1.1222589376 
       0.0000069312   0.0000069312   1.1222584609 
       0.0000074834   0.0000068755   1.1222567575 
       0.0000079643   0.0000071290   1.1222571787 
       0.0000074388   0.0000072712   1.1222589198 
       0.0000078136   0.0000078136   1.1222592888 
       0.0000079289   0.0000079364   1.1222593817 
       0.0000079907   0.0000079795   1.1222589027 
       0.0000079907   0.0000079795   1.1222589148 
       0.0000079289   0.0000079364   1.1222594127 
       0.0000078136   0.0000078136   1.1222593251 
       0.0000074388   0.0000072712   1.1222589452 
       0.0000079643   0.0000071290   1.1222571811 
       0.0000080877   0.0000072361   1.1222578661 
       0.0000075554   0.0000073827   1.1222590121 
       0.0000079364   0.0000079289   1.1222593817 
       0.0000080476   0.0000080476   1.1222595017 
       0.0000081141   0.0000080878   1.1222592845 
       0.0000081141   0.0000080878   1.1222593023 
       0.0000080476   0.0000080476   1.1222595474 
       0.0000079364   0.0000079289   1.1222594355 
       0.0000075554   0.0000073827   1.1222590506 
       0.0000080877   0.0000072361   1.1222578720 
       0.0000081288   0.0000072800   1.1222577652 
       0.0000075954   0.0000074357   1.1222588927 
       0.0000079795   0.0000079907   1.1222589027 
       0.0000080878   0.0000081141   1.1222592845 
       0.0000081562   0.0000081562   1.1222593427 
       0.0000081562   0.0000081562   1.1222593641 
       0.0000080878   0.0000081141   1.1222593394 
       0.0000079795   0.0000079907   1.1222589675 
       0.0000075954   0.0000074357   1.1222589395 
       0.0000081288   0.0000072800   1.1222577731 
       0.0000081288   0.0000072800   1.1222577659 
       0.0000075954   0.0000074357   1.1222588989 
       0.0000079795   0.0000079907   1.1222589148 
       0.0000080878   0.0000081141   1.1222593023 
       0.0000081562   0.0000081562   1.1222593641 
       0.0000081562   0.0000081562   1.1222593854 
       0.0000080878   0.0000081141   1.1222593571 
       0.0000079795   0.0000079907   1.1222589796 
       0.0000075954   0.0000074357   1.1222589456 
       0.0000081288   0.0000072800   1.1222577738 
       0.0000080877   0.0000072361   1.1222578676 
       0.0000075554   0.0000073827   1.1222590276 
       0.0000079364   0.0000079289   1.1222594127 
       0.0000080476   0.0000080476   1.1222595474 
       0.0000081141   0.0000080878   1.1222593394 
       0.0000081141   0.0000080878   1.1222593571 
       0.0000080476   0.0000080476   1.1222595930 
       0.0000079364   0.0000079289   1.1222594665 
       0.0000075554   0.0000073827   1.1222590661 
       0.0000080877   0.0000072361   1.1222578734 
       0.0000079643   0.0000071290   1.1222571795 
       0.0000074388   0.0000072712   1.1222589376 
       0.0000078136   0.0000078136   1.1222593251 
       0.0000079289   0.0000079364   1.1222594355 
       0.0000079907   0.0000079795   1.1222589675 
       0.0000079907   0.0000079795   1.1222589796 
       0.0000079289   0.0000079364   1.1222594665 
       0.0000078136   0.0000078136   1.1222593613 
       0.0000074388   0.0000072712   1.1222589629 
       0.0000079643   0.0000071290   1.1222571819 
       0.0000074834   0.0000068755   1.1222567573 
       0.0000069312   0.0000069312   1.1222584609 
       0.0000072712   0.0000074388   1.1222589452 
       0.0000073827   0.0000075554   1.1222590506 
       0.0000074357   0.0000075954   1.1222589395 
       0.0000074357   0.0000075954   1.1222589456 
       0.0000073827   0.0000075554   1.1222590661 
       0.0000072712   0.0000074388   1.1222589629 
       0.0000069312   0.0000069312   1.1222584722 
       0.0000074834   0.0000068755   1.1222567561 
       0.0000070489   0.0000070489   1.1222553988 
       0.0000068755   0.0000074834   1.1222567575 
       0.0000071290   0.0000079643   1.1222571811 
       0.0000072361   0.0000080877   1.1222578720 
       0.0000072800   0.0000081288   1.1222577731 
       0.0000072800   0.0000081288   1.1222577738 
       0.0000072361   0.0000080877   1.1222578734 
       0.0000071290   0.0000079643   1.1222571819 
       0.0000068755   0.0000074834   1.1222567561 
       0.0000070489   0.0000070489   1.1222553939 
       0.0000080416   0.0000080416   2.2445082029 
       0.0000081488   0.0000082208   2.2445096931 
       0.0000081720   0.0000084182   2.2445099257 
       0.0000082125   0.0000085712   2.2445105258 
       0.0000082428   0.0000086313   2.2445106960 
       0.0000082428   0.0000086313   2.2445106924 
       0.0000082125   0.0000085712   2.2445105160 
       0.0000081720   0.0000084182   2.2445099123 
       0.0000081488   0.0000082208   2.2445096792 
       0.0000080416   0.0000080416   2.2445081907 
       0.0000082208   0.0000081488   2.2445096931 
       0.0000083493   0.0000083493   2.2445101137 
       0.0000083585   0.0000085366   2.2445108299 
       0.0000083802   0.0000086841   2.2445108797 
       0.0000084222   0.0000087408   2.2445108742 
       0.0000084222   0.0000087408   2.2445108626 
       0.0000083802   0.0000086841   2.2445108493 
       0.0000083585   0.0000085366   2.2445107920 
       0.0000083493   0.0000083493   2.2445100819 
       0.0000082208   0.0000081488   2.2445096780 
       0.0000084182   0.0000081720   2.2445099257 
       0.0000085366   0.0000083585   2.2445108299 
       0.0000085560   0.0000085560   2.2445114949 
       0.0000085625   0.0000087168   2.2445113604 
       0.0000086147   0.0000087792   2.2445108922 
       0.0000086147   0.0000087792   2.2445108712 
       0.0000085625   0.0000087168   2.2445113059 
       0.0000085560   0.0000085560   2.2445114284 
       0.0000085366   0.0000083585   2.2445107771 
       0.0000084182   0.0000081720   2.2445099063 
       0.0000085712   0.0000082125   2.2445105258 
       0.0000086841   0.0000083802   2.2445108797 
       0.0000087168   0.0000085625   2.2445113604 
       0.0000087134   0.0000087134   2.2445115422 
       0.0000087729   0.0000087703   2.2445112452 
       0.0000087729   0.0000087703   2.2445112150 
       0.0000087134   0.0000087134   2.2445114638 
       0.0000087168   0.0000085625   2.2445112654 
       0.0000086841   0.0000083802   2.2445108059 
       0.0000085712   0.0000082125   2.2445105017 
       0.0000086313   0.0000082428   2.2445106960 
       0.0000087408   0.0000084222   2.2445108742 
       0.0000087792   0.0000086147   2.2445108922 
       0.0000087703   0.0000087729   2.2445112452 
       0.0000088335   0.0000088335   2.2445110384 
       0.0000088335   0.0000088335   2.2445110022 
       0.0000087704   0.0000087729   2.2445111514 
       0.0000087792   0.0000086147   2.2445107789 
       0.0000087408   0.0000084222   2.2445107869 
       0.0000086313   0.0000082428   2.2445106688 
       0.0000086313   0.0000082428   2.2445106924 
       0.0000087408   0.0000084222   2.2445108626 
       0.0000087792   0.0000086147   2.2445108712 
       0.0000087703   0.0000087729   2.2445112150 
       0.0000088335   0.0000088335   2.2445110022 
       0.0000088335   0.0000088335   2.2445109660 
       0.0000087704   0.0000087729   2.2445111212 
       0.0000087792   0.0000086147   2.2445107579 
       0.0000087408   0.0000084222   2.2445107753 
       0.0000086313   0.0000082428   2.2445106652 
       0.0000085712   0.0000082125   2.2445105160 
       0.0000086841   0.0000083802   2.2445108493 
       0.0000087168   0.0000085625   2.2445113059 
       0.0000087134   0.0000087134   2.2445114638 
       0.0000087729   0.0000087704   2.2445111514 
       0.0000087729   0.0000087704   2.2445111212 
       0.0000087134   0.0000087134   2.2445113854 
       0.0000087168   0.0000085625   2.2445112108 
       0.0000086841   0.0000083802   2.2445107755 
       0.0000085712   0.0000082125   2.2445104919 
       0.0000084182   0.0000081720   2.2445099123 
       0.0000085366   0.0000083585   2.2445107920 
       0.0000085560   0.0000085560   2.2445114284 
       0.0000085625   0.0000087168   2.2445112654 
       0.0000086147   0.0000087792   2.2445107789 
       0.0000086147   0.0000087792   2.2445107579 
       0.0000085625   0.0000087168   2.2445112108 
       0.0000085560   0.0000085560   2.2445113618 
       0.0000085366   0.0000083585   2.2445107392 
       0.0000084182   0.0000081720   2.2445098928 
       0.0000082208   0.0000081488   2.2445096792 
       0.0000083493   0.0000083493   2.2445100819 
       0.0000083585   0.0000085366   2.2445107771 
       0.0000083802   0.0000086841   2.2445108059 
       0.0000084222   0.0000087408   2.2445107869 
       0.0000084222   0.0000087408   2.2445107753 
       0.0000083802   0.0000086841   2.2445107755 
       0.0000083585   0.0000085366   2.2445107392 
       0.0000083493   0.0000083493   2.2445100501 
       0.0000082208   0.0000081488   2.2445096641 
       0.0000080416   0.0000080416   2.2445081907 
       0.0000081488   0.0000082208   2.2445096780 
       0.0000081720   0.0000084182   2.2445099063 
       0.0000082125   0.0000085712   2.2445105017 
       0.0000082428   0.0000086313   2.2445106688 
       0.0000082428   0.0000086313   2.2445106652 
       0.0000082125   0.0000085712   2.2445104919 
       0.0000081720   0.0000084182   2.2445098928 
       0.0000081488   0.0000082208   2.2445096641 
       0.0000080416   0.0000080416   2.2445081785 
       0.0000088570   0.0000088570   3.3667614481 
       0.0000089089   0.0000090553   3.3667625546 
       0.0000089610   0.0000091974   3.3667622909 
       0.0000089767   0.0000093075   3.3667620890 
       0.0000089932   0.0000093649   3.3667624739 
       0.0000089932   0.0000093649   3.3667624732 
       0.0000089767   0.0000093075   3.3667620865 
       0.0000089610   0.0000091974   3.3667622854 
       0.0000089089   0.0000090553   3.3667625448 
       0.0000088570   0.0000088570   3.3667614326 
       0.0000090553   0.0000089089   3.3667625546 
       0.0000090413   0.0000090413   3.3667624392 
       0.0000091143   0.0000091771   3.3667628419 
       0.0000091020   0.0000092768   3.3667627393 
       0.0000091325   0.0000093298   3.3667626546 
       0.0000091325   0.0000093298   3.3667626608 
       0.0000091020   0.0000092768   3.3667627546 
       0.0000091143   0.0000091771   3.3667628577 
       0.0000090413   0.0000090413   3.3667624456 
       0.0000090553   0.0000089089   3.3667625448 
       0.0000091974   0.0000089610   3.3667622909 
       0.0000091771   0.0000091143   3.3667628419 
       0.0000092676   0.0000092676   3.3667629676 
       0.0000092318   0.0000093823   3.3667629729 
       0.0000092739   0.0000094431   3.3667628720 
       0.0000092739   0.0000094431   3.3667628874 
       0.0000092318   0.0000093823   3.3667630119 
       0.0000092675   0.0000092676   3.3667630120 
       0.0000091771   0.0000091143   3.3667628700 
       0.0000091974   0.0000089610   3.3667622872 
       0.0000093075   0.0000089767   3.3667620890 
       0.0000092768   0.0000091020   3.3667627393 
       0.0000093823   0.0000092318   3.3667629729 
       0.0000093315   0.0000093315   3.3667636776 
       0.0000093826   0.0000093847   3.3667634743 
       0.0000093826   0.0000093847   3.3667634997 
       0.0000093316   0.0000093315   3.3667637426 
       0.0000093823   0.0000092318   3.3667630484 
       0.0000092768   0.0000091020   3.3667627910 
       0.0000093075   0.0000089767   3.3667620915 
       0.0000093649   0.0000089932   3.3667624739 
       0.0000093298   0.0000091325   3.3667626546 
       0.0000094431   0.0000092739   3.3667628720 
       0.0000093847   0.0000093826   3.3667634743 
       0.0000094406   0.0000094406   3.3667629359 
       0.0000094406   0.0000094406   3.3667629680 
       0.0000093847   0.0000093826   3.3667635566 
       0.0000094431   0.0000092739   3.3667629684 
       0.0000093298   0.0000091325   3.3667627219 
       0.0000093649   0.0000089932   3.3667624806 
       0.0000093649   0.0000089932   3.3667624732 
       0.0000093298   0.0000091325   3.3667626608 
       0.0000094431   0.0000092739   3.3667628874 
       0.0000093847   0.0000093826   3.3667634997 
       0.0000094406   0.0000094406   3.3667629680 
       0.0000094406   0.0000094406   3.3667630002 
       0.0000093847   0.0000093826   3.3667635820 
       0.0000094431   0.0000092739   3.3667629838 
       0.0000093298   0.0000091325   3.3667627281 
       0.0000093649   0.0000089932   3.3667624799 
       0.0000093075   0.0000089767   3.3667620865 
       0.0000092768   0.0000091020   3.3667627546 
       0.0000093823   0.0000092318   3.3667630119 
       0.0000093315   0.0000093316   3.3667637426 
       0.0000093826   0.0000093847   3.3667635566 
       0.0000093826   0.0000093847   3.3667635820 
       0.0000093316   0.0000093316   3.3667638075 
       0.0000093823   0.0000092318   3.3667630874 
       0.0000092768   0.0000091020   3.3667628062 
       0.0000093075   0.0000089767   3.3667620891 
       0.0000091974   0.0000089610   3.3667622854 
       0.0000091771   0.0000091143   3.3667628577 
       0.0000092676   0.0000092675   3.3667630120 
       0.0000092318   0.0000093823   3.3667630484 
       0.0000092739   0.0000094431   3.3667629684 
       0.0000092739   0.0000094431   3.3667629838 
       0.0000092318   0.0000093823   3.3667630874 
       0.0000092675   0.0000092675   3.3667630563 
       0.0000091771   0.0000091143   3.3667628858 
       0.0000091974   0.0000089610   3.3667622817 
       0.0000090553   0.0000089089   3.3667625448 
       0.0000090413   0.0000090413   3.3667624456 
       0.0000091143   0.0000091771   3.3667628700 
       0.0000091020   0.0000092768   3.3667627910 
       0.0000091325   0.0000093298   3.3667627219 
       0.0000091325   0.0000093298   3.3667627281 
       0.0000091020   0.0000092768   3.3667628062 
       0.0000091143   0.0000091771   3.3667628858 
       0.0000090413   0.0000090413   3.3667624519 
       0.0000090553   0.0000089089   3.3667625350 
       0.0000088570   0.0000088570   3.3667614326 
       0.0000089089   0.0000090553   3.3667625448 
       0.0000089610   0.0000091974   3.3667622872 
       0.0000089767   0.0000093075   3.3667620915 
       0.0000089932   0.0000093649   3.3667624806 
       0.0000089932   0.0000093649   3.3667624799 
       0.0000089767   0.0000093075   3.3667620891 
       0.0000089610   0.0000091974   3.3667622817 
       0.0000089089   0.0000090553   3.3667625350 
       0.0000088570   0.0000088570   3.3667614170 
       0.0000093894   0.0000093894   4.4890146597 
       0.0000094532   0.0000095783   4.4890143812 
       0.0000094978   0.0000097026   4.4890141173 
       0.0000095132   0.0000097951   4.4890138088 
       0.0000095292   0.0000098433   4.4890144182 
       0.0000095292   0.0000098433   4.4890144153 
       0.0000095132   0.0000097951   4.4890138003 
       0.0000094978   0.0000097026   4.4890141039 
       0.0000094532   0.0000095783   4.4890143637 
       0.0000093894   0.0000093894   4.4890146385 
       0.0000095783   0.0000094532   4.4890143812 
       0.0000095877   0.0000095877   4.4890149287 
       0.0000096487   0.0000097020   4.4890147753 
       0.0000096335   0.0000097830   4.4890147444 
       0.0000096657   0.0000098260   4.4890146532 
       0.0000096657   0.0000098260   4.4890146492 
       0.0000096335   0.0000097830   4.4890147331 
       0.0000096487   0.0000097020   4.4890147587 
       0.0000095877   0.0000095877   4.4890149095 
       0.0000095783   0.0000094532   4.4890143622 
       0.0000097026   0.0000094978   4.4890141173 
       0.0000097020   0.0000096487   4.4890147753 
       0.0000097829   0.0000097829   4.4890146822 
       0.0000097412   0.0000098811   4.4890149353 
       0.0000097868   0.0000099328   4.4890150027 
       0.0000097867   0.0000099328   4.4890149938 
       0.0000097412   0.0000098811   4.4890149114 
       0.0000097829   0.0000097829   4.4890146510 
       0.0000097020   0.0000096487   4.4890147459 
       0.0000097025   0.0000094978   4.4890140971 
       0.0000097951   0.0000095132   4.4890138088 
       0.0000097830   0.0000096335   4.4890147444 
       0.0000098811   0.0000097412   4.4890149353 
       0.0000098219   0.0000098219   4.4890152253 
       0.0000098776   0.0000098646   4.4890150580 
       0.0000098776   0.0000098646   4.4890150417 
       0.0000098219   0.0000098219   4.4890151825 
       0.0000098811   0.0000097412   4.4890148816 
       0.0000097830   0.0000096335   4.4890146986 
       0.0000097951   0.0000095132   4.4890137853 
       0.0000098433   0.0000095292   4.4890144182 
       0.0000098260   0.0000096657   4.4890146532 
       0.0000099328   0.0000097868   4.4890150027 
       0.0000098646   0.0000098776   4.4890150580 
       0.0000099259   0.0000099259   4.4890146631 
       0.0000099259   0.0000099259   4.4890146413 
       0.0000098647   0.0000098776   4.4890150009 
       0.0000099328   0.0000097868   4.4890149320 
       0.0000098260   0.0000096657   4.4890145949 
       0.0000098433   0.0000095292   4.4890143921 
       0.0000098433   0.0000095292   4.4890144153 
       0.0000098260   0.0000096657   4.4890146492 
       0.0000099328   0.0000097867   4.4890149938 
       0.0000098646   0.0000098776   4.4890150417 
       0.0000099259   0.0000099259   4.4890146413 
       0.0000099259   0.0000099259   4.4890146195 
       0.0000098647   0.0000098776   4.4890149846 
       0.0000099328   0.0000097867   4.4890149231 
       0.0000098260   0.0000096657   4.4890145908 
       0.0000098433   0.0000095292   4.4890143892 
       0.0000097951   0.0000095132   4.4890138003 
       0.0000097830   0.0000096335   4.4890147331 
       0.0000098811   0.0000097412   4.4890149114 
       0.0000098219   0.0000098219   4.4890151825 
       0.0000098776   0.0000098647   4.4890150009 
       0.0000098776   0.0000098647   4.4890149846 
       0.0000098219   0.0000098219   4.4890151398 
       0.0000098811   0.0000097412   4.4890148578 
       0.0000097830   0.0000096335   4.4890146873 
       0.0000097951   0.0000095132   4.4890137769 
       0.0000097026   0.0000094978   4.4890141039 
       0.0000097020   0.0000096487   4.4890147587 
       0.0000097829   0.0000097829   4.4890146510 
       0.0000097412   0.0000098811   4.4890148816 
       0.0000097868   0.0000099328   4.4890149320 
       0.0000097867   0.0000099328   4.4890149231 
       0.0000097412   0.0000098811   4.4890148578 
       0.0000097829   0.0000097829   4.4890146197 
       0.0000097020   0.0000096487   4.4890147293 
       0.0000097025   0.0000094978   4.4890140836 
       0.0000095783   0.0000094532   4.4890143637 
       0.0000095877   0.0000095877   4.4890149095 
       0.0000096487   0.0000097020   4.4890147459 
       0.0000096335   0.0000097830   4.4890146986 
       0.0000096657   0.0000098260   4.4890145949 
       0.0000096657   0.0000098260   4.4890145908 
       0.0000096335   0.0000097830   4.4890146873 
       0.0000096487   0.0000097020   4.4890147293 
       0.0000095877   0.0000095877   4.4890148903 
       0.0000095783   0.0000094532   4.4890143447 
       0.0000093894   0.0000093894   4.4890146385 
       0.0000094532   0.0000095783   4.4890143622 
       0.0000094978   0.0000097025   4.4890140971 
       0.0000095132   0.0000097951   4.4890137853 
       0.0000095292   0.0000098433   4.4890143921 
       0.0000095292   0.0000098433   4.4890143892 
       0.0000095132   0.0000097951   4.4890137769 
       0.0000094978   0.0000097025   4.4890140836 
       0.0000094532   0.0000095783   4.4890143447 
       0.0000093894   0.0000093894   4.4890146173 
       0.0000097489   0.0000097489   5.6112679114 
       0.0000098138   0.0000099443   5.6112665134 
       0.0000098612   0.0000100638   5.6112664706 
       0.0000098762   0.0000101500   5.6112661834 
       0.0000098925   0.0000101941   5.6112662912 
       0.0000098925   0.0000101941   5.6112662858 
       0.0000098762   0.0000101500   5.6112661681 
       0.0000098612   0.0000100638   5.6112664483 
       0.0000098138   0.0000099443   5.6112664877 
       0.0000097489   0.0000097489   5.6112678846 
       0.0000099443   0.0000098138   5.6112665134 
       0.0000099492   0.0000099492   5.6112666134 
       0.0000100148   0.0000100591   5.6112664454 
       0.0000099980   0.0000101333   5.6112669276 
       0.0000100307   0.0000101720   5.6112670905 
       0.0000100307   0.0000101720   5.6112670796 
       0.0000099980   0.0000101333   5.6112668985 
       0.0000100148   0.0000100591   5.6112664069 
       0.0000099492   0.0000099492   5.6112665763 
       0.0000099443   0.0000098138   5.6112664869 
       0.0000100638   0.0000098612   5.6112664706 
       0.0000100591   0.0000100148   5.6112664454 
       0.0000101446   0.0000101446   5.6112664733 
       0.0000101006   0.0000102362   5.6112670019 
       0.0000101469   0.0000102837   5.6112672304 
       0.0000101468   0.0000102837   5.6112672189 
       0.0000101007   0.0000102362   5.6112669711 
       0.0000101446   0.0000101446   5.6112664330 
       0.0000100591   0.0000100148   5.6112664078 
       0.0000100638   0.0000098612   5.6112664455 
       0.0000101500   0.0000098762   5.6112661834 
       0.0000101333   0.0000099980   5.6112669276 
       0.0000102362   0.0000101006   5.6112670019 
       0.0000101744   0.0000101744   5.6112669120 
       0.0000102309   0.0000102128   5.6112667556 
       0.0000102309   0.0000102128   5.6112667475 
       0.0000101744   0.0000101744   5.6112668899 
       0.0000102362   0.0000101006   5.6112669723 
       0.0000101333   0.0000099980   5.6112668985 
       0.0000101500   0.0000098762   5.6112661614 
       0.0000101941   0.0000098925   5.6112662912 
       0.0000101720   0.0000100307   5.6112670905 
       0.0000102837   0.0000101469   5.6112672304 
       0.0000102128   0.0000102309   5.6112667556 
       0.0000102749   0.0000102749   5.6112666729 
       0.0000102748   0.0000102749   5.6112666682 
       0.0000102128   0.0000102309   5.6112667427 
       0.0000102837   0.0000101469   5.6112672118 
       0.0000101720   0.0000100307   5.6112670698 
       0.0000101941   0.0000098925   5.6112662718 
       0.0000101941   0.0000098925   5.6112662858 
       0.0000101720   0.0000100307   5.6112670796 
       0.0000102837   0.0000101468   5.6112672189 
       0.0000102128   0.0000102309   5.6112667475 
       0.0000102749   0.0000102748   5.6112666682 
       0.0000102748   0.0000102748   5.6112666635 
       0.0000102128   0.0000102309   5.6112667345 
       0.0000102837   0.0000101468   5.6112672003 
       0.0000101720   0.0000100307   5.6112670589 
       0.0000101941   0.0000098925   5.6112662663 
       0.0000101500   0.0000098762   5.6112661681 
       0.0000101333   0.0000099980   5.6112668985 
       0.0000102362   0.0000101007   5.6112669711 
       0.0000101744   0.0000101744   5.6112668899 
       0.0000102309   0.0000102128   5.6112667427 
       0.0000102309   0.0000102128   5.6112667345 
       0.0000101744   0.0000101744   5.6112668679 
       0.0000102362   0.0000101007   5.6112669415 
       0.0000101333   0.0000099980   5.6112668694 
       0.0000101500   0.0000098762   5.6112661461 
       0.0000100638   0.0000098612   5.6112664483 
       0.0000100591   0.0000100148   5.6112664069 
       0.0000101446   0.0000101446   5.6112664330 
       0.0000101006   0.0000102362   5.6112669723 
       0.0000101469   0.0000102837   5.6112672118 
       0.0000101468   0.0000102837   5.6112672003 
       0.0000101007   0.0000102362   5.6112669415 
       0.0000101445   0.0000101445   5.6112663927 
       0.0000100591   0.0000100148   5.6112663692 
       0.0000100638   0.0000098612   5.6112664232 
       0.0000099443   0.0000098138   5.6112664877 
       0.0000099492   0.0000099492   5.6112665763 