<VTKFile type="UnstructuredGrid" version="0.1" byte_order="LittleEndian">
  <UnstructuredGrid>
    <Piece NumberOfPoints="4096" NumberOfCells="3375">
     <PointData Scalars="scalars">
      <DataArray type="Float32" Name="Displacement" NumberOfComponents="3" format="ascii">
       0.0000013628   0.0000013628   0.0000013628 
       0.0000027256   0.0000027256   0.0000027256 
       0.0000027256   0.0000027256   0.0000027256 
       0.0000027256   0.0000027256   0.0000027256 
       0.0000027256   0.0000027256   0.0000027256 
       0.0000027256   0.0000027256   0.0000027256 
       0.0000027256   0.0000027256   0.0000027256 
       0.0000027256   0.0000027256   0.0000027256 
       0.0000027256   0.0000027256   0.0000027256 
       0.0000027256   0.0000027256   0.0000027256 
       0.0000027256   0.0000027256   0.0000027256 
       0.0000027256   0.0000027256   0.0000027256 
       0.0000027256   0.0000027256   0.0000027256 
       0.0000027256   0.0000027256   0.0000027256 
       0.0000027256   0.0000027256   0.0000027256 
       0.0000013628   0.0000013628   0.0000013628 
       0.0000027256   0.0000027256   0.0000027256 
       0.0000054512   0.0000054512   0.0000054512 
       0.0000054512   0.0000054512   0.0000054512 
       0.0000054512   0.0000054512   0.0000054512 
       0.0000054512   0.0000054512   0.0000054512 
       0.0000054512   0.0000054512   0.0000054512 
       0.0000054512   0.0000054512   0.0000054512 
       0.0000054512   0.0000054512   0.0000054512 
       0.0000054512   0.0000054512   0.0000054512 
       0.0000054512   0.0000054512   0.0000054512 
       0.0000054512   0.0000054512   0.0000054512 
       0.0000054512   0.0000054512   0.0000054512 
       0.0000054512   0.0000054512   0.0000054512 
       0.0000054512   0.0000054512   0.0000054512 
       0.0000054512   0.0000054512   0.0000054512 
       0.0000027256   0.0000027256   0.0000027256 
       0.0000027256   0.0000027256   0.0000027256 
       0.0000054512   0.0000054512   0.0000054512 
       0.0000054512   0.0000054512   0.0000054512 
       0.0000054512   0.0000054512   0.0000054512 
       0.0000054512   0.0000054512   0.0000054512 
       0.0000054512   0.0000054512   0.0000054512 
       0.0000054512   0.0000054512   0.0000054512 
       0.0000054512   0.0000054512   0.0000054512 
       0.0000054512   0.0000054512   0.0000054512 
       0.0000054512   0.0000054512   0.0000054512 
       0.0000054512   0.0000054512   0.0000054512 
       0.0000054512   0.0000054512   0.0000054512 
       0.0000054512   0.0000054512   0.0000054512 
       0.0000054512   0.0000054512   0.0000054512 
       0.0000054512   0.0000054512   0.0000054512 
       0.0000027256   0.0000027256   0.0000027256 
       0.0000027256   0.0000027256   0.0000027256 
       0.0000054512   0.0000054512   0.0000054512 
       0.0000054512   0.0000054512   0.0000054512 
       0.0000054512   0.0000054512   0.0000054512 
       0.0000054512   0.0000054512   0.0000054512 
       0.0000054512   0.0000054512   0.0000054512 
       0.0000054512   0.0000054512   0.0000054512 
       0.0000054512   0.0000054512   0.0000054512 
       0.0000054512   0.0000054512   0.0000054512 
       0.0000054512   0.0000054512   0.0000054512 
       0.0000054512   0.0000054512   0.0000054512 
       0.0000054512   0.0000054512   0.0000054512 
       0.0000054512   0.0000054512   0.0000054512 
       0.0000054512   0.0000054512   0.0000054512 
       0.0000054512   0.0000054512   0.0000054512 
       0.0000027256   0.0000027256   0.0000027256 
       0.0000027256   0.0000027256   0.0000027256 
       0.0000054512   0.0000054512   0.0000054512 
       0.0000054512   0.0000054512   0.0000054512 
       0.0000054512   0.0000054512   0.0000054512 
       0.0000054512   0.0000054512   0.0000054512 
       0.0000054512   0.0000054512   0.0000054512 
       0.0000054512   0.0000054512   0.0000054512 
       0.0000054512   0.0000054512   0.0000054512 
       0.0000054512   0.0000054512   0.0000054512 
       0.0000054512   0.0000054512   0.0000054512 
       0.0000054512   0.0000054512   0.0000054512 
       0.0000054512   0.0000054512   0.0000054512 
       0.0000054512   0.0000054512   0.0000054512 
       0.0000054512   0.0000054512   0.0000054512 
       0.0000054512   0.0000054512   0.0000054512 
       0.0000027256   0.0000027256   0.0000027256 
       0.0000027256   0.0000027256   0.0000027256 
       0.0000054512   0.0000054512   0.0000054512 
       0.0000054512   0.0000054512   0.0000054512 
       0.0000054512   0.0000054512   0.0000054512 
       0.0000054512   0.0000054512   0.0000054512 
       0.0000054512   0.0000054512   0.0000054512 
       0.0000054512   0.0000054512   0.0000054512 
       0.0000054512   0.0000054512   0.0000054512 
       0.0000054512   0.0000054512   0.0000054512 
       0.0000054512   0.0000054512   0.0000054512 
       0.0000054512   0.0000054512   0.0000054512 
       0.0000054512   0.0000054512   0.0000054512 
       0.0000054512   0.0000054512   0.0000054512 
       0.0000054512   0.0000054512   0.0000054512 
       0.0000054512   0.0000054512   0.0000054512 
       0.0000027256   0.0000027256   0.0000027256 
       0.0000027256   0.0000027256   0.0000027256 
       0.0000054512   0.0000054512   0.0000054512 
       0.0000054512   0.0000054512   0.0000054512 
       0.0000054512   0.0000054512   0.0000054512 
       0.0000054512   0.0000054512   0.0000054512 
       0.0000054512   0.0000054512   0.0000054512 
       0.0000054512   0.0000054512   0.0000054512 
       0.0000054512   0.0000054512   0.0000054512 
       0.0000054512   0.0000054512   0.0000054512 
       0.0000054512   0.0000054512   0.0000054512 
       0.0000054512   0.0000054512   0.0000054512 
       0.0000054512   0.0000054512   0.0000054512 
       0.0000054512   0.0000054512   0.0000054512 
       0.0000054512   0.0000054512   0.0000054512 
       0.0000054512   0.0000054512   0.0000054512 
       0.0000027256   0.0000027256   0.0000027256 
       0.0000027256   0.0000027256   0.0000027256 
       0.0000054512   0.0000054512   0.0000054512 
       0.0000054512   0.0000054512   0.0000054512 
       0.0000054512   0.0000054512   0.0000054512 
       0.0000054512   0.0000054512   0.0000054512 
       0.0000054512   0.0000054512   0.0000054512 
       0.0000054512   0.0000054512   0.0000054512 
       0.0000054512   0.0000054512   0.0000054512 
       0.0000054512   0.0000054512   0.0000054512 
       0.0000054512   0.0000054512   0.0000054512 
       0.0000054512   0.0000054512   0.0000054512 
       0.0000054512   0.0000054512   0.0000054512 
       0.0000054512   0.0000054512   0.0000054512 
       0.0000054512   0.0000054512   0.0000054512 
       0.0000054512   0.0000054512   0.0000054512 
       0.0000027256   0.0000027256   0.0000027256 
       0.0000027256   0.0000027256   0.0000027256 
       0.0000054512   0.0000054512   0.0000054512 
       0.0000054512   0.0000054512   0.0000054512 
       0.0000054512   0.0000054512   0.0000054512 
       0.0000054512   0.0000054512   0.0000054512 
       0.0000054512   0.0000054512   0.0000054512 
       0.0000054512   0.0000054512   0.0000054512 
       0.0000054512   0.0000054512   0.0000054512 
       0.0000054512   0.0000054512   0.0000054512 
       0.0000054512   0.0000054512   0.0000054512 
       0.0000054512   0.0000054512   0.0000054512 
       0.0000054512   0.0000054512   0.0000054512 
       0.0000054512   0.0000054512   0.0000054512 
       0.0000054512   0.0000054512   0.0000054512 
       0.0000054512   0.0000054512   0.0000054512 
       0.0000027256   0.0000027256   0.0000027256 
       0.0000027256   0.0000027256   0.0000027256 
       0.0000054512   0.0000054512   0.0000054512 
       0.0000054512   0.0000054512   0.0000054512 
       0.0000054512   0.0000054512   0.0000054512 
       0.0000054512   0.0000054512   0.0000054512 
       0.0000054512   0.0000054512   0.0000054512 
       0.0000054512   0.0000054512   0.0000054512 
       0.0000054512   0.0000054512   0.0000054512 
       0.0000054512   0.0000054512   0.0000054512 
       0.0000054512   0.0000054512   0.0000054512 
       0.0000054512   0.0000054512   0.0000054512 
       0.0000054512   0.0000054512   0.0000054512 
       0.0000054512   0.0000054512   0.0000054512 
       0.0000054512   0.0000054512   0.0000054512 
       0.0000054512   0.0000054512   0.0000054512 
       0.0000027256   0.0000027256   0.0000027256 
       0.0000027256   0.0000027256   0.0000027256 
       0.0000054512   0.0000054512   0.0000054512 
       0.0000054512   0.0000054512   0.0000054512 
       0.0000054512   0.0000054512   0.0000054512 
       0.0000054512   0.0000054512   0.0000054512 
       0.0000054512   0.0000054512   0.0000054512 
       0.0000054512   0.0000054512   0.0000054512 
       0.0000054512   0.0000054512   0.0000054512 
       0.0000054512   0.0000054512   0.0000054512 
       0.0000054512   0.0000054512   0.0000054512 
       0.0000054512   0.0000054512   0.0000054512 
       0.0000054512   0.0000054512   0.0000054512 
       0.0000054512   0.0000054512   0.0000054512 
       0.0000054512   0.0000054512   0.0000054512 
       0.0000054512   0.0000054512   0.0000054512 
       0.0000027256   0.0000027256   0.0000027256 
       0.0000027256   0.0000027256   0.0000027256 
       0.0000054512   0.0000054512   0.0000054512 
       0.0000054512   0.0000054512   0.0000054512 
       0.0000054512   0.0000054512   0.0000054512 
       0.0000054512   0.0000054512   0.0000054512 
       0.0000054512   0.0000054512   0.0000054512 
       0.0000054512   0.0000054512   0.0000054512 
       0.0000054512   0.0000054512   0.0000054512 
       0.0000054512   0.0000054512   0.0000054512 
       0.0000054512   0.0000054512   0.0000054512 
       0.0000054512   0.0000054512   0.0000054512 
       0.0000054512   0.0000054512   0.0000054512 
       0.0000054512   0.0000054512   0.0000054512 
       0.0000054512   0.0000054512   0.0000054512 
       0.0000054512   0.0000054512   0.0000054512 
       0.0000027256   0.0000027256   0.0000027256 
       0.0000027256   0.0000027256   0.0000027256 
       0.0000054512   0.0000054512   0.0000054512 
       0.0000054512   0.0000054512   0.0000054512 
       0.0000054512   0.0000054512   0.0000054512 
       0.0000054512   0.0000054512   0.0000054512 
       0.0000054512   0.0000054512   0.0000054512 
       0.0000054512   0.0000054512   0.0000054512 
       0.0000054512   0.0000054512   0.0000054512 
       0.0000054512   0.0000054512   0.0000054512 
       0.0000054512   0.0000054512   0.0000054512 
       0.0000054512   0.0000054512   0.0000054512 
       0.0000054512   0.0000054512   0.0000054512 
       0.0000054512   0.0000054512   0.0000054512 
       0.0000054512   0.0000054512   0.0000054512 
       0.0000054512   0.0000054512   0.0000054512 
       0.0000027256   0.0000027256   0.0000027256 
       0.0000027256   0.0000027256   0.0000027256 
       0.0000054512   0.0000054512   0.0000054512 
       0.0000054512   0.0000054512   0.0000054512 
       0.0000054512   0.0000054512   0.0000054512 
       0.0000054512   0.0000054512   0.0000054512 
       0.0000054512   0.0000054512   0.0000054512 
       0.0000054512   0.0000054512   0.0000054512 
       0.0000054512   0.0000054512   0.0000054512 
       0.0000054512   0.0000054512   0.0000054512 
       0.0000054512   0.0000054512   0.0000054512 
       0.0000054512   0.0000054512   0.0000054512 
       0.0000054512   0.0000054512   0.0000054512 
       0.0000054512   0.0000054512   0.0000054512 
       0.0000054512   0.0000054512   0.0000054512 
       0.0000054512   0.0000054512   0.0000054512 
       0.0000027256   0.0000027256   0.0000027256 
       0.0000027256   0.0000027256   0.0000027256 
       0.0000054512   0.0000054512   0.0000054512 
       0.0000054512   0.0000054512   0.0000054512 
       0.0000054512   0.0000054512   0.0000054512 
       0.0000054512   0.0000054512   0.0000054512 
       0.0000054512   0.0000054512   0.0000054512 
       0.0000054512   0.0000054512   0.0000054512 
       0.0000054512   0.0000054512   0.0000054512 
       0.0000054512   0.0000054512   0.0000054512 
       0.0000054512   0.0000054512   0.0000054512 
       0.0000054512   0.0000054512   0.0000054512 
       0.0000054512   0.0000054512   0.0000054512 
       0.0000054512   0.0000054512   0.0000054512 
       0.0000054512   0.0000054512   0.0000054512 
       0.0000054512   0.0000054512   0.0000054512 
       0.0000027256   0.0000027256   0.0000027256 
       0.0000013628   0.0000013628   0.0000013628 
       0.0000027256   0.0000027256   0.0000027256 
       0.0000027256   0.0000027256   0.0000027256 
       0.0000027256   0.0000027256   0.0000027256 
       0.0000027256   0.0000027256   0.0000027256 
       0.0000027256   0.0000027256   0.0000027256 
       0.0000027256   0.0000027256   0.0000027256 
       0.0000027256   0.0000027256   0.0000027256 
       0.0000027256   0.0000027256   0.0000027256 
       0.0000027256   0.0000027256   0.0000027256 
       0.0000027256   0.0000027256   0.0000027256 
       0.0000027256   0.0000027256   0.0000027256 
       0.0000027256   0.0000027256   0.0000027256 
       0.0000027256   0.0000027256   0.0000027256 
       0.0000027256   0.0000027256   0.0000027256 
       0.0000013628   0.0000013628   0.0000013628 
       0.0000051669   0.0000051669   0.6733542452 
       0.0000050196   0.0000054393   0.6733550588 
       0.0000051999   0.0000057846   0.6733553028 
       0.0000052847   0.0000058738   0.6733555180 
       0.0000053274   0.0000059114   0.6733555768 
       0.0000053506   0.0000059304   0.6733554770 
       0.0000053629   0.0000059403   0.6733554666 
       0.0000053684   0.0000059446   0.6733554935 
       0.0000053685   0.0000059446   0.6733554917 
       0.0000053632   0.0000059403   0.6733554613 
       0.0000053512   0.0000059304   0.6733554684 
       0.0000053284   0.0000059114   0.6733555650 
       0.0000052860   0.0000058738   0.6733555036 
       0.0000052019   0.0000057846   0.6733552861 
       0.0000050212   0.0000054393   0.6733550405 
       0.0000051686   0.0000051669   0.6733542254 
       0.0000054394   0.0000050195   0.6733550588 
       0.0000050307   0.0000050307   0.6733556828 
       0.0000052695   0.0000053968   0.6733561274 
       0.0000053656   0.0000054842   0.6733562632 
       0.0000054107   0.0000055224   0.6733563187 
       0.0000054353   0.0000055415   0.6733563214 
       0.0000054476   0.0000055515   0.6733562916 
       0.0000054535   0.0000055559   0.6733562076 
       0.0000054535   0.0000055559   0.6733562058 
       0.0000054479   0.0000055515   0.6733562863 
       0.0000054359   0.0000055415   0.6733563128 
       0.0000054116   0.0000055224   0.6733563072 
       0.0000053670   0.0000054842   0.6733562490 
       0.0000052699   0.0000053968   0.6733561111 
       0.0000050324   0.0000050307   0.6733556650 
       0.0000054410   0.0000050195   0.6733550401 
       0.0000057847   0.0000051998   0.6733553028 
       0.0000053969   0.0000052694   0.6733561274 
       0.0000056560   0.0000056559   0.6733565113 
       0.0000057621   0.0000057432   0.6733566720 
       0.0000058103   0.0000057813   0.6733566435 
       0.0000058368   0.0000058003   0.6733566166 
       0.0000058493   0.0000058102   0.6733566588 
       0.0000058555   0.0000058145   0.6733566054 
       0.0000058556   0.0000058145   0.6733566036 
       0.0000058495   0.0000058102   0.6733566535 
       0.0000058371   0.0000058003   0.6733566080 
       0.0000058109   0.0000057813   0.6733566320 
       0.0000057628   0.0000057432   0.6733566580 
       0.0000056571   0.0000056559   0.6733564953 
       0.0000053978   0.0000052694   0.6733561100 
       0.0000057857   0.0000051998   0.6733552848 
       0.0000058738   0.0000052846   0.6733555180 
       0.0000054842   0.0000053655   0.6733562632 
       0.0000057432   0.0000057620   0.6733566720 
       0.0000058512   0.0000058512   0.6733568528 
       0.0000059003   0.0000058898   0.6733567890 
       0.0000059279   0.0000059091   0.6733567703 
       0.0000059405   0.0000059192   0.6733568500 
       0.0000059471   0.0000059236   0.6733567756 
       0.0000059471   0.0000059236   0.6733567738 
       0.0000059407   0.0000059192   0.6733568446 
       0.0000059281   0.0000059091   0.6733567616 
       0.0000059006   0.0000058898   0.6733567775 
       0.0000058516   0.0000058512   0.6733568388 
       0.0000057436   0.0000057620   0.6733566562 
       0.0000054847   0.0000053655   0.6733562462 
       0.0000058743   0.0000052846   0.6733555005 
       0.0000059114   0.0000053273   0.6733555768 
       0.0000055224   0.0000054106   0.6733563187 
       0.0000057814   0.0000058102   0.6733566435 
       0.0000058898   0.0000059003   0.6733567890 
       0.0000059388   0.0000059387   0.6733566630 
       0.0000059669   0.0000059578   0.6733566559 
       0.0000059794   0.0000059677   0.6733567959 
       0.0000059861   0.0000059720   0.6733566960 
       0.0000059862   0.0000059720   0.6733566942 
       0.0000059795   0.0000059677   0.6733567904 
       0.0000059670   0.0000059578   0.6733566471 
       0.0000059389   0.0000059387   0.6733566513 
       0.0000058900   0.0000059003   0.6733567750 
       0.0000057815   0.0000058102   0.6733566278 
       0.0000055226   0.0000054106   0.6733563020 
       0.0000059116   0.0000053273   0.6733555597 
       0.0000059304   0.0000053505   0.6733554770 
       0.0000055415   0.0000054352   0.6733563214 
       0.0000058003   0.0000058367   0.6733566166 
       0.0000059091   0.0000059278   0.6733567703 
       0.0000059579   0.0000059668   0.6733566559 
       0.0000059863   0.0000059862   0.6733567143 
       0.0000059986   0.0000059963   0.6733568729 
       0.0000060055   0.0000060007   0.6733567099 
       0.0000060055   0.0000060007   0.6733567079 
       0.0000059986   0.0000059963   0.6733568673 
       0.0000059863   0.0000059862   0.6733567053 
       0.0000059579   0.0000059668   0.6733566440 
       0.0000059092   0.0000059278   0.6733567562 
       0.0000058004   0.0000058367   0.6733566008 
       0.0000055416   0.0000054352   0.6733563048 
       0.0000059305   0.0000053505   0.6733554603 
       0.0000059403   0.0000053627   0.6733554666 
       0.0000055515   0.0000054474   0.6733562916 
       0.0000058102   0.0000058492   0.6733566588 
       0.0000059192   0.0000059404   0.6733568500 
       0.0000059677   0.0000059793   0.6733567959 
       0.0000059964   0.0000059986   0.6733568729 
       0.0000060086   0.0000060085   0.6733569507 
       0.0000060155   0.0000060129   0.6733567345 
       0.0000060155   0.0000060129   0.6733567326 
       0.0000060086   0.0000060085   0.6733569450 
       0.0000059964   0.0000059986   0.6733568638 
       0.0000059678   0.0000059793   0.6733567839 
       0.0000059192   0.0000059404   0.6733568357 
       0.0000058102   0.0000058492   0.6733566430 
       0.0000055516   0.0000054474   0.6733562751 
       0.0000059404   0.0000053627   0.6733554501 
       0.0000059446   0.0000053682   0.6733554935 
       0.0000055559   0.0000054532   0.6733562076 
       0.0000058145   0.0000058553   0.6733566054 
       0.0000059236   0.0000059469   0.6733567756 
       0.0000059721   0.0000059860   0.6733566960 
       0.0000060008   0.0000060054   0.6733567099 
       0.0000060129   0.0000060155   0.6733567345 
       0.0000060199   0.0000060198   0.6733565842 
       0.0000060199   0.0000060198   0.6733565823 
       0.0000060129   0.0000060155   0.6733567287 
       0.0000060008   0.0000060054   0.6733567006 
       0.0000059721   0.0000059860   0.6733566839 
       0.0000059236   0.0000059469   0.6733567612 
       0.0000058145   0.0000058553   0.6733565896 
       0.0000055559   0.0000054532   0.6733561911 
       0.0000059447   0.0000053682   0.6733554771 
       0.0000059446   0.0000053682   0.6733554917 
       0.0000055559   0.0000054532   0.6733562058 
       0.0000058145   0.0000058553   0.6733566036 
       0.0000059236   0.0000059469   0.6733567738 
       0.0000059720   0.0000059860   0.6733566942 
       0.0000060008   0.0000060054   0.6733567079 
       0.0000060129   0.0000060155   0.6733567326 
       0.0000060199   0.0000060198   0.6733565823 
       0.0000060199   0.0000060198   0.6733565803 
       0.0000060129   0.0000060155   0.6733567268 
       0.0000060008   0.0000060054   0.6733566987 
       0.0000059721   0.0000059860   0.6733566820 
       0.0000059236   0.0000059469   0.6733567594 
       0.0000058145   0.0000058553   0.6733565878 
       0.0000055559   0.0000054532   0.6733561893 
       0.0000059447   0.0000053682   0.6733554753 
       0.0000059403   0.0000053627   0.6733554613 
       0.0000055515   0.0000054474   0.6733562863 
       0.0000058102   0.0000058492   0.6733566535 
       0.0000059192   0.0000059404   0.6733568446 
       0.0000059677   0.0000059793   0.6733567904 
       0.0000059963   0.0000059986   0.6733568673 
       0.0000060085   0.0000060085   0.6733569450 
       0.0000060155   0.0000060129   0.6733567287 
       0.0000060155   0.0000060129   0.6733567268 
       0.0000060085   0.0000060085   0.6733569392 
       0.0000059963   0.0000059986   0.6733568582 
       0.0000059677   0.0000059793   0.6733567784 
       0.0000059192   0.0000059404   0.6733568303 
       0.0000058102   0.0000058492   0.6733566377 
       0.0000055515   0.0000054474   0.6733562698 
       0.0000059403   0.0000053627   0.6733554448 
       0.0000059304   0.0000053505   0.6733554684 
       0.0000055415   0.0000054352   0.6733563128 
       0.0000058003   0.0000058367   0.6733566080 
       0.0000059091   0.0000059278   0.6733567616 
       0.0000059578   0.0000059668   0.6733566471 
       0.0000059862   0.0000059862   0.6733567053 
       0.0000059986   0.0000059963   0.6733568638 
       0.0000060054   0.0000060007   0.6733567006 
       0.0000060054   0.0000060007   0.6733566987 
       0.0000059986   0.0000059963   0.6733568582 
       0.0000059862   0.0000059862   0.6733566963 
       0.0000059578   0.0000059668   0.6733566352 
       0.0000059091   0.0000059278   0.6733567475 
       0.0000058003   0.0000058367   0.6733565922 
       0.0000055415   0.0000054352   0.6733562962 
       0.0000059304   0.0000053505   0.6733554516 
       0.0000059114   0.0000053273   0.6733555650 
       0.0000055224   0.0000054106   0.6733563072 
       0.0000057813   0.0000058102   0.6733566320 
       0.0000058898   0.0000059003   0.6733567775 
       0.0000059387   0.0000059387   0.6733566513 
       0.0000059668   0.0000059578   0.6733566440 
       0.0000059793   0.0000059677   0.6733567839 
       0.0000059860   0.0000059720   0.6733566839 
       0.0000059860   0.0000059720   0.6733566820 
       0.0000059793   0.0000059677   0.6733567784 
       0.0000059669   0.0000059578   0.6733566352 
       0.0000059387   0.0000059387   0.6733566395 
       0.0000058898   0.0000059003   0.6733567634 
       0.0000057813   0.0000058102   0.6733566163 
       0.0000055224   0.0000054106   0.6733562904 
       0.0000059114   0.0000053273   0.6733555480 
       0.0000058738   0.0000052846   0.6733555036 
       0.0000054842   0.0000053655   0.6733562490 
       0.0000057432   0.0000057620   0.6733566580 
       0.0000058512   0.0000058512   0.6733568388 
       0.0000059003   0.0000058898   0.6733567750 
       0.0000059278   0.0000059091   0.6733567562 
       0.0000059404   0.0000059192   0.6733568357 
       0.0000059469   0.0000059236   0.6733567612 
       0.0000059469   0.0000059236   0.6733567594 
       0.0000059404   0.0000059192   0.6733568303 
       0.0000059278   0.0000059091   0.6733567475 
       0.0000059003   0.0000058898   0.6733567634 
       0.0000058512   0.0000058512   0.6733568248 
       0.0000057432   0.0000057620   0.6733566422 
       0.0000054842   0.0000053655   0.6733562320 
       0.0000058738   0.0000052846   0.6733554861 
       0.0000057846   0.0000051998   0.6733552861 
       0.0000053968   0.0000052694   0.6733561111 
       0.0000056559   0.0000056559   0.6733564953 
       0.0000057620   0.0000057432   0.6733566562 
       0.0000058102   0.0000057813   0.6733566278 
       0.0000058366   0.0000058003   0.6733566008 
       0.0000058492   0.0000058102   0.6733566430 
       0.0000058553   0.0000058145   0.6733565896 
       0.0000058553   0.0000058145   0.6733565878 
       0.0000058492   0.0000058102   0.6733566377 
       0.0000058367   0.0000058003   0.6733565922 
       0.0000058102   0.0000057813   0.6733566163 
       0.0000057620   0.0000057432   0.6733566422 
       0.0000056559   0.0000056559   0.6733564793 
       0.0000053968   0.0000052694   0.6733560938 
       0.0000057846   0.0000051998   0.6733552681 
       0.0000054393   0.0000050195   0.6733550405 
       0.0000050307   0.0000050307   0.6733556650 
       0.0000052694   0.0000053968   0.6733561100 
       0.0000053655   0.0000054842   0.6733562462 
       0.0000054106   0.0000055224   0.6733563020 
       0.0000054352   0.0000055415   0.6733563048 
       0.0000054474   0.0000055515   0.6733562751 
       0.0000054532   0.0000055559   0.6733561911 
       0.0000054532   0.0000055559   0.6733561893 
       0.0000054474   0.0000055515   0.6733562698 
       0.0000054352   0.0000055415   0.6733562962 
       0.0000054106   0.0000055224   0.6733562904 
       0.0000053655   0.0000054842   0.6733562320 
       0.0000052694   0.0000053968   0.6733560938 
       0.0000050307   0.0000050307   0.6733556471 
       0.0000054393   0.0000050195   0.6733550218 
       0.0000051669   0.0000051669   0.6733542254 
       0.0000050195   0.0000054393   0.6733550401 
       0.0000051998   0.0000057846   0.6733552848 
       0.0000052846   0.0000058738   0.6733555005 
       0.0000053273   0.0000059114   0.6733555597 
       0.0000053505   0.0000059304   0.6733554603 
       0.0000053627   0.0000059403   0.6733554501 
       0.0000053682   0.0000059446   0.6733554771 
       0.0000053682   0.0000059446   0.6733554753 
       0.0000053627   0.0000059403   0.6733554448 
       0.0000053505   0.0000059304   0.6733554516 
       0.0000053273   0.0000059114   0.6733555480 
       0.0000052846   0.0000058738   0.6733554861 
       0.0000051998   0.0000057846   0.6733552681 
       0.0000050195   0.0000054393   0.6733550218 
       0.0000051669   0.0000051669   0.6733542055 
       0.0000058935   0.0000058934   1.3467060159 
       0.0000059555   0.0000059701   1.3467067361 
       0.0000059622   0.0000060949   1.3467070327 
       0.0000059996   0.0000062038   1.3467074095 
       0.0000060322   0.0000062600   1.3467075932 
       0.0000060556   0.0000062913   1.3467075467 
       0.0000060698   0.0000063085   1.3467074569 
       0.0000060767   0.0000063162   1.3467073572 
       0.0000060769   0.0000063162   1.3467073537 
       0.0000060703   0.0000063085   1.3467074465 
       0.0000060566   0.0000062913   1.3467075297 
       0.0000060338   0.0000062600   1.3467075702 
       0.0000060020   0.0000062038   1.3467073811 
       0.0000059628   0.0000060949   1.3467069998 
       0.0000059585   0.0000059701   1.3467066998 
       0.0000058963   0.0000058934   1.3467059764 
       0.0000059702   0.0000059554   1.3467067361 
       0.0000060693   0.0000060692   1.3467070764 
       0.0000060552   0.0000061921   1.3467075455 
       0.0000060939   0.0000063024   1.3467077164 
       0.0000061266   0.0000063589   1.3467077874 
       0.0000061515   0.0000063905   1.3467077994 
       0.0000061652   0.0000064078   1.3467077565 
       0.0000061727   0.0000064156   1.3467076628 
       0.0000061728   0.0000064156   1.3467076595 
       0.0000061657   0.0000064078   1.3467077467 
       0.0000061524   0.0000063905   1.3467077833 
       0.0000061281   0.0000063589   1.3467077655 
       0.0000060969   0.0000063024   1.3467076894 
       0.0000060655   0.0000061921   1.3467075141 
       0.0000060728   0.0000060692   1.3467070415 
       0.0000059729   0.0000059554   1.3467066991 
       0.0000060950   0.0000059621   1.3467070327 
       0.0000061922   0.0000060551   1.3467075455 
       0.0000061752   0.0000061751   1.3467078518 
       0.0000062158   0.0000062865   1.3467079587 
       0.0000062491   0.0000063426   1.3467079538 
       0.0000062757   0.0000063739   1.3467079392 
       0.0000062893   0.0000063910   1.3467079381 
       0.0000062972   0.0000063986   1.3467078419 
       0.0000062973   0.0000063986   1.3467078388 
       0.0000062896   0.0000063910   1.3467079289 
       0.0000062763   0.0000063739   1.3467079241 
       0.0000062500   0.0000063426   1.3467079331 
       0.0000062173   0.0000062865   1.3467079331 
       0.0000061756   0.0000061751   1.3467078219 
       0.0000061940   0.0000060551   1.3467075122 
       0.0000060967   0.0000059621   1.3467069971 
       0.0000062039   0.0000059994   1.3467074095 
       0.0000063025   0.0000060938   1.3467077164 
       0.0000062866   0.0000062157   1.3467079587 
       0.0000063291   0.0000063290   1.3467080040 
       0.0000063623   0.0000063860   1.3467079707 
       0.0000063903   0.0000064179   1.3467079265 
       0.0000064036   0.0000064354   1.3467078922 
       0.0000064120   0.0000064432   1.3467077466 
       0.0000064120   0.0000064432   1.3467077437 
       0.0000064038   0.0000064354   1.3467078836 
       0.0000063906   0.0000064179   1.3467079124 
       0.0000063628   0.0000063860   1.3467079513 
       0.0000063295   0.0000063290   1.3467079798 
       0.0000062873   0.0000062157   1.3467079303 
       0.0000063031   0.0000060938   1.3467076845 
       0.0000062046   0.0000059994   1.3467073752 
       0.0000062600   0.0000060320   1.3467075932 
       0.0000063590   0.0000061264   1.3467077874 
       0.0000063427   0.0000062489   1.3467079538 
       0.0000063861   0.0000063622   1.3467079707 
       0.0000064189   0.0000064188   1.3467079737 
       0.0000064477   0.0000064502   1.3467079867 