<VTKFile type="UnstructuredGrid" version="0.1" byte_order="LittleEndian">
  <UnstructuredGrid>
    <Piece NumberOfPoints="512" NumberOfCells="343">
     <PointData Scalars="scalars">
      <DataArray type="Float32" Name="Displacement" NumberOfComponents="3" format="ascii">
       0.0000022832   0.0000022832   0.0000022832 
       0.0000045664   0.0000045664   0.0000045664 
       0.0000045664   0.0000045664   0.0000045664 
       0.0000045664   0.0000045664   0.0000045664 
       0.0000045664   0.0000045664   0.0000045664 
       0.0000045664   0.0000045664   0.0000045664 
       0.0000045664   0.0000045664   0.0000045664 
       0.0000022832   0.0000022832   0.0000022832 
       0.0000045664   0.0000045664   0.0000045664 
       0.0000091328   0.0000091328   0.0000091328 
       0.0000091328   0.0000091328   0.0000091328 
       0.0000091328   0.0000091328   0.0000091328 
       0.0000091328   0.0000091328   0.0000091328 
       0.0000091328   0.0000091328   0.0000091328 
       0.0000091328   0.0000091328   0.0000091328 
       0.0000045664   0.0000045664   0.0000045664 
       0.0000045664   0.0000045664   0.0000045664 
       0.0000091328   0.0000091328   0.0000091328 
       0.0000091328   0.0000091328   0.0000091328 
       0.0000091328   0.0000091328   0.0000091328 
       0.0000091328   0.0000091328   0.0000091328 
       0.0000091328   0.0000091328   0.0000091328 
       0.0000091328   0.0000091328   0.0000091328 
       0.0000045664   0.0000045664   0.0000045664 
       0.0000045664   0.0000045664   0.0000045664 
       0.0000091328   0.0000091328   0.0000091328 
       0.0000091328   0.0000091328   0.0000091328 
       0.0000091328   0.0000091328   0.0000091328 
       0.0000091328   0.0000091328   0.0000091328 
       0.0000091328   0.0000091328   0.0000091328 
       0.0000091328   0.0000091328   0.0000091328 
       0.0000045664   0.0000045664   0.0000045664 
       0.0000045664   0.0000045664   0.0000045664 
       0.0000091328   0.0000091328   0.0000091328 
       0.0000091328   0.0000091328   0.0000091328 
       0.0000091328   0.0000091328   0.0000091328 
       0.0000091327   0.0000091327   0.0000091327 
       0.0000091328   0.0000091328   0.0000091328 
       0.0000091327   0.0000091327   0.0000091327 
       0.0000045664   0.0000045664   0.0000045664 
       0.0000045664   0.0000045664   0.0000045664 
       0.0000091328   0.0000091328   0.0000091328 
       0.0000091328   0.0000091328   0.0000091328 
       0.0000091328   0.0000091328   0.0000091328 
       0.0000091328   0.0000091328   0.0000091328 
       0.0000091328   0.0000091328   0.0000091328 
       0.0000091328   0.0000091328   0.0000091328 
       0.0000045664   0.0000045664   0.0000045664 
       0.0000045664   0.0000045664   0.0000045664 
       0.0000091328   0.0000091328   0.0000091328 
       0.0000091328   0.0000091328   0.0000091328 
       0.0000091328   0.0000091328   0.0000091328 
       0.0000091327   0.0000091327   0.0000091327 
       0.0000091328   0.0000091328   0.0000091328 
       0.0000091327   0.0000091327   0.0000091327 
       0.0000045664   0.0000045664   0.0000045664 
       0.0000022832   0.0000022832   0.0000022832 
       0.0000045664   0.0000045664   0.0000045664 
       0.0000045664   0.0000045664   0.0000045664 
       0.0000045664   0.0000045664   0.0000045664 
       0.0000045664   0.0000045664   0.0000045664 
       0.0000045664   0.0000045664   0.0000045664 
       0.0000045664   0.0000045664   0.0000045664 
       0.0000022832   0.0000022832   0.0000022832 
       0.0000085852   0.0000085852   1.4429017928 
       0.0000083928   0.0000091662   1.4429018624 
       0.0000086987   0.0000097562   1.4429024520 
       0.0000088099   0.0000098882   1.4429022449 
       0.0000088099   0.0000098882   1.4429022434 
       0.0000086987   0.0000097562   1.4429024475 
       0.0000083928   0.0000091662   1.4429018547 
       0.0000085852   0.0000085852   1.4429017814 
       0.0000091662   0.0000083928   1.4429018624 
       0.0000084971   0.0000084971   1.4429029784 
       0.0000088990   0.0000091281   1.4429037360 
       0.0000090230   0.0000092562   1.4429037765 
       0.0000090231   0.0000092562   1.4429037773 
       0.0000088990   0.0000091281   1.4429037368 
       0.0000084972   0.0000084971   1.4429029759 
       0.0000091662   0.0000083928   1.4429018544 
       0.0000097562   0.0000086987   1.4429024520 
       0.0000091281   0.0000088990   1.4429037360 
       0.0000095625   0.0000095625   1.4429044077 
       0.0000096982   0.0000096903   1.4429042939 
       0.0000096983   0.0000096903   1.4429042982 
       0.0000095625   0.0000095625   1.4429044168 
       0.0000091281   0.0000088990   1.4429037415 
       0.0000097562   0.0000086987   1.4429024468 
       0.0000098882   0.0000088099   1.4429022449 
       0.0000092562   0.0000090230   1.4429037765 
       0.0000096903   0.0000096982   1.4429042939 
       0.0000098278   0.0000098278   1.4429044560 
       0.0000098279   0.0000098278   1.4429044633 
       0.0000096902   0.0000096982   1.4429043100 
       0.0000092562   0.0000090230   1.4429037886 
       0.0000098882   0.0000088099   1.4429022417 
       0.0000098882   0.0000088099   1.4429022434 
       0.0000092562   0.0000090231   1.4429037773 
       0.0000096903   0.0000096983   1.4429042982 
       0.0000098278   0.0000098279   1.4429044633 
       0.0000098279   0.0000098279   1.4429044705 
       0.0000096902   0.0000096983   1.4429043143 
       0.0000092562   0.0000090231   1.4429037894 
       0.0000098882   0.0000088099   1.4429022402 
       0.0000097562   0.0000086987   1.4429024475 
       0.0000091281   0.0000088990   1.4429037368 
       0.0000095625   0.0000095625   1.4429044168 
       0.0000096982   0.0000096902   1.4429043100 
       0.0000096983   0.0000096902   1.4429043143 
       0.0000095625   0.0000095625   1.4429044259 
       0.0000091281   0.0000088990   1.4429037423 
       0.0000097562   0.0000086987   1.4429024422 
       0.0000091662   0.0000083928   1.4429018547 
       0.0000084971   0.0000084972   1.4429029759 
       0.0000088990   0.0000091281   1.4429037415 
       0.0000090230   0.0000092562   1.4429037886 
       0.0000090231   0.0000092562   1.4429037894 
       0.0000088990   0.0000091281   1.4429037423 
       0.0000084972   0.0000084972   1.4429029734 
       0.0000091662   0.0000083928   1.4429018466 
       0.0000085852   0.0000085852   1.4429017814 
       0.0000083928   0.0000091662   1.4429018544 
       0.0000086987   0.0000097562   1.4429024468 
       0.0000088099   0.0000098882   1.4429022417 
       0.0000088099   0.0000098882   1.4429022402 
       0.0000086987   0.0000097562   1.4429024422 
       0.0000083928   0.0000091662   1.4429018466 
       0.0000085852   0.0000085852   1.4429017701 
       0.0000097005   0.0000097005   2.8857978569 
       0.0000098526   0.0000099696   2.8857980657 
       0.0000098752   0.0000102141   2.8857985442 
       0.0000099114   0.0000103717   2.8857982347 
       0.0000099114   0.0000103717   2.8857982307 
       0.0000098752   0.0000102141   2.8857985327 
       0.0000098526   0.0000099696   2.8857980483 
       0.0000097005   0.0000097005   2.8857978341 
       0.0000099696   0.0000098526   2.8857980657 
       0.0000101432   0.0000101432   2.8857984754 
       0.0000101292   0.0000103872   2.8857990128 
       0.0000101582   0.0000105467   2.8857989635 
       0.0000101582   0.0000105467   2.8857989575 
       0.0000101291   0.0000103872   2.8857989970 
       0.0000101433   0.0000101432   2.8857984549 
       0.0000099696   0.0000098526   2.8857980463 
       0.0000102141   0.0000098752   2.8857985442 
       0.0000103872   0.0000101292   2.8857990128 
       0.0000103673   0.0000103673   2.8857993431 
       0.0000103937   0.0000105283   2.8857992231 
       0.0000103939   0.0000105283   2.8857992123 
       0.0000103672   0.0000103673   2.8857993165 
       0.0000103872   0.0000101292   2.8857989833 
       0.0000102141   0.0000098752   2.8857985242 
       0.0000103717   0.0000099114   2.8857982347 
       0.0000105467   0.0000101582   2.8857989635 
       0.0000105283   0.0000103937   2.8857992231 
       0.0000105565   0.0000105565   2.8857993699 
       0.0000105566   0.0000105565   2.8857993547 
       0.0000105281   0.0000103937   2.8857991862 
       0.0000105468   0.0000101582   2.8857989250 
       0.0000103717   0.0000099114   2.8857982132 
       0.0000103717   0.0000099114   2.8857982307 
       0.0000105467   0.0000101582   2.8857989575 
       0.0000105283   0.0000103939   2.8857992123 
       0.0000105565   0.0000105566   2.8857993547 
       0.0000105566   0.0000105566   2.8857993395 
       0.0000105281   0.0000103939   2.8857991755 
       0.0000105468   0.0000101582   2.8857989190 
       0.0000103717   0.0000099114   2.8857982092 
       0.0000102141   0.0000098752   2.8857985327 
       0.0000103872   0.0000101291   2.8857989970 
       0.0000103673   0.0000103672   2.8857993165 
       0.0000103937   0.0000105281   2.8857991862 
       0.0000103939   0.0000105281   2.8857991755 
       0.0000103672   0.0000103672   2.8857992899 
       0.0000103872   0.0000101291   2.8857989675 
       0.0000102141   0.0000098752   2.8857985127 
       0.0000099696   0.0000098526   2.8857980483 
       0.0000101432   0.0000101433   2.8857984549 
       0.0000101292   0.0000103872   2.8857989833 
       0.0000101582   0.0000105468   2.8857989250 
       0.0000101582   0.0000105468   2.8857989190 
       0.0000101291   0.0000103872   2.8857989675 
       0.0000101433   0.0000101433   2.8857984344 
       0.0000099696   0.0000098526   2.8857980288 
       0.0000097005   0.0000097005   2.8857978341 
       0.0000098526   0.0000099696   2.8857980463 
       0.0000098752   0.0000102141   2.8857985242 
       0.0000099114   0.0000103717   2.8857982132 
       0.0000099114   0.0000103717   2.8857982092 
       0.0000098752   0.0000102141   2.8857985127 
       0.0000098526   0.0000099696   2.8857980288 
       0.0000097005   0.0000097005   2.8857978113 
       0.0000105603   0.0000105603   4.3286924006 
       0.0000106493   0.0000108567   4.3286942874 
       0.0000107107   0.0000110348   4.3286943386 
       0.0000107291   0.0000111394   4.3286940001 
       0.0000107292   0.0000111394   4.3286939944 
       0.0000107107   0.0000110348   4.3286943222 
       0.0000106493   0.0000108567   4.3286942622 
       0.0000105603   0.0000105603   4.3286923673 
       0.0000108567   0.0000106493   4.3286942874 
       0.0000108622   0.0000108622   4.3286943686 
       0.0000109243   0.0000110487   4.3286944085 
       0.0000109317   0.0000111524   4.3286943746 
       0.0000109318   0.0000111524   4.3286943700 
       0.0000109242   0.0000110487   4.3286943948 
       0.0000108623   0.0000108622   4.3286943468 
       0.0000108567   0.0000106493   4.3286942608 
       0.0000110348   0.0000107107   4.3286943386 
       0.0000110487   0.0000109243   4.3286944085 
       0.0000111075   0.0000111075   4.3286946493 
       0.0000111100   0.0000112099   4.3286949148 
       0.0000111101   0.0000112099   4.3286949150 
       0.0000111074   0.0000111075   4.3286946471 
       0.0000110488   0.0000109243   4.3286943985 
       0.0000110348   0.0000107107   4.3286943174 
       0.0000111394   0.0000107291   4.3286940001 
       0.0000111524   0.0000109317   4.3286943746 
       0.0000112099   0.0000111100   4.3286949148 
       0.0000112135   0.0000112135   4.3286949958 
       0.0000112137   0.0000112135   4.3286950011 
       0.0000112098   0.0000111100   4.3286949247 
       0.0000111525   0.0000109317   4.3286943763 
       0.0000111393   0.0000107291   4.3286939831 
       0.0000111394   0.0000107292   4.3286939944 
       0.0000111524   0.0000109318   4.3286943700 
       0.0000112099   0.0000111101   4.3286949150 
       0.0000112135   0.0000112137   4.3286950011 
       0.0000112137   0.0000112137   4.3286950063 
       0.0000112098   0.0000111101   4.3286949249 
       0.0000111525   0.0000109318   4.3286943716 
       0.0000111393   0.0000107292   4.3286939775 
       0.0000110348   0.0000107107   4.3286943222 
       0.0000110487   0.0000109242   4.3286943948 
       0.0000111075   0.0000111074   4.3286946471 
       0.0000111100   0.0000112098   4.3286949247 
       0.0000111101   0.0000112098   4.3286949249 
       0.0000111074   0.0000111074   4.3286946450 
       0.0000110488   0.0000109242   4.3286943848 
       0.0000110348   0.0000107107   4.3286943011 
       0.0000108567   0.0000106493   4.3286942622 
       0.0000108622   0.0000108623   4.3286943468 
       0.0000109243   0.0000110488   4.3286943985 
       0.0000109317   0.0000111525   4.3286943763 
       0.0000109318   0.0000111525   4.3286943716 
       0.0000109242   0.0000110488   4.3286943848 
       0.0000108623   0.0000108623   4.3286943250 
       0.0000108567   0.0000106493   4.3286942355 
       0.0000105603   0.0000105603   4.3286923673 
       0.0000106493   0.0000108567   4.3286942608 
       0.0000107107   0.0000110348   4.3286943174 
       0.0000107291   0.0000111393   4.3286939831 
       0.0000107292   0.0000111393   4.3286939775 
       0.0000107107   0.0000110348   4.3286943011 
       0.0000106493   0.0000108567   4.3286942355 
       0.0000105603   0.0000105603   4.3286923339 
       0.0000110356   0.0000110356   5.7715875085 
       0.0000111403   0.0000113226   5.7715897951 
       0.0000111949   0.0000114833   5.7715894654 
       0.0000112177   0.0000115716   5.7715887051 
       0.0000112177   0.0000115716   5.7715886994 
       0.0000111949   0.0000114833   5.7715894481 
       0.0000111403   0.0000113226   5.7715897661 
       0.0000110356   0.0000110356   5.7715874664 
       0.0000113226   0.0000111403   5.7715897951 
       0.0000113611   0.0000113611   5.7715893770 
       0.0000114061   0.0000115279   5.7715894907 
       0.0000114191   0.0000116157   5.7715894758 
       0.0000114192   0.0000116157   5.7715894734 
       0.0000114060   0.0000115279   5.7715894817 
       0.0000113612   0.0000113611   5.7715893572 
       0.0000113226   0.0000111403   5.7715897631 
       0.0000114833   0.0000111949   5.7715894654 
       0.0000115279   0.0000114061   5.7715894907 
       0.0000115690   0.0000115690   5.7715892501 
       0.0000115774   0.0000116556   5.7715895729 
       0.0000115776   0.0000116556   5.7715895688 
       0.0000115689   0.0000115690   5.7715892378 
       0.0000115280   0.0000114061   5.7715894697 
       0.0000114833   0.0000111949   5.7715894364 
       0.0000115716   0.0000112177   5.7715887051 
       0.0000116157   0.0000114191   5.7715894758 
       0.0000116556   0.0000115774   5.7715895729 
       0.0000116650   0.0000116650   5.7715897842 
       0.0000116652   0.0000116650   5.7715897768 
       0.0000116554   0.0000115774   5.7715895528 
       0.0000116159   0.0000114191   5.7715894484 
       0.0000115715   0.0000112177   5.7715886761 
       0.0000115716   0.0000112177   5.7715886994 
       0.0000116157   0.0000114192   5.7715894734 
       0.0000116556   0.0000115776   5.7715895688 
       0.0000116650   0.0000116652   5.7715897768 
       0.0000116652   0.0000116652   5.7715897694 
       0.0000116554   0.0000115776   5.7715895488 
       0.0000116159   0.0000114192   5.7715894460 
       0.0000115715   0.0000112177   5.7715886704 
       0.0000114833   0.0000111949   5.7715894481 
       0.0000115279   0.0000114060   5.7715894817 
       0.0000115690   0.0000115689   5.7715892378 
       0.0000115774   0.0000116554   5.7715895528 
       0.0000115776   0.0000116554   5.7715895488 
       0.0000115689   0.0000115689   5.7715892254 
       0.0000115280   0.0000114060   5.7715894607 
       0.0000114833   0.0000111949   5.7715894191 
       0.0000113226   0.0000111403   5.7715897661 
       0.0000113611   0.0000113612   5.7715893572 
       0.0000114061   0.0000115280   5.7715894697 
       0.0000114191   0.0000116159   5.7715894484 
       0.0000114192   0.0000116159   5.7715894460 
       0.0000114060   0.0000115280   5.7715894607 
       0.0000113612   0.0000113612   5.7715893374 
       0.0000113226   0.0000111403   5.7715897341 
       0.0000110356   0.0000110356   5.7715874664 
       0.0000111403   0.0000113226   5.7715897631 
       0.0000111949   0.0000114833   5.7715894364 
       0.0000112177   0.0000115715   5.7715886761 
       0.0000112177   0.0000115715   5.7715886704 
       0.0000111949   0.0000114833   5.7715894191 
       0.0000111403   0.0000113226   5.7715897341 
       0.0000110356   0.0000110356   5.7715874243 
       0.0000112480   0.0000112480   7.2144837926 
       0.0000113602   0.0000115506   7.2144843449 
       0.0000114166   0.0000117122   7.2144846983 
       0.0000114398   0.0000118013   7.2144839425 
       0.0000114398   0.0000118013   7.2144839328 
       0.0000114166   0.0000117122   7.2144846707 
       0.0000113602   0.0000115506   7.2144843037 
       0.0000112480   0.0000112480   7.2144837404 
       0.0000115506   0.0000113602   7.2144843449 
       0.0000115863   0.0000115863   7.2144843496 
       0.0000116348   0.0000117559   7.2144845234 
       0.0000116483   0.0000118438   7.2144846137 
       0.0000116483   0.0000118438   7.2144846003 
       0.0000116347   0.0000117559   7.2144844877 
       0.0000115863   0.0000115863   7.2144843028 
       0.0000115506   0.0000113602   7.2144843008 
       0.0000117122   0.0000114166   7.2144846983 
       0.0000117559   0.0000116348   7.2144845234 
       0.0000118000   0.0000118000   7.2144845010 
       0.0000118085   0.0000118869   7.2144846739 
       0.0000118087   0.0000118869   7.2144846611 
       0.0000117999   0.0000118000   7.2144844675 
       0.0000117560   0.0000116348   7.2144844809 
       0.0000117121   0.0000114166   7.2144846596 
       0.0000118013   0.0000114398   7.2144839425 
       0.0000118438   0.0000116483   7.2144846137 
       0.0000118869   0.0000118085   7.2144846739 
       0.0000118961   0.0000118961   7.2144854417 
       0.0000118963   0.0000118961   7.2144854316 
       0.0000118867   0.0000118085   7.2144846467 
       0.0000118439   0.0000116483   7.2144845779 
       0.0000118013   0.0000114398   7.2144839076 
       0.0000118013   0.0000114398   7.2144839328 
       0.0000118438   0.0000116483   7.2144846003 
       0.0000118869   0.0000118087   7.2144846611 
       0.0000118961   0.0000118963   7.2144854316 
       0.0000118963   0.0000118963   7.2144854214 
       0.0000118867   0.0000118087   7.2144846339 
       0.0000118439   0.0000116483   7.2144845644 
       0.0000118013   0.0000114398   7.2144838979 
       0.0000117122   0.0000114166   7.2144846707 
       0.0000117559   0.0000116347   7.2144844877 
       0.0000118000   0.0000117999   7.2144844675 
       0.0000118085   0.0000118867   7.2144846467 
       0.0000118087   0.0000118867   7.2144846339 
       0.0000117999   0.0000117999   7.2144844340 
       0.0000117560   0.0000116347   7.2144844451 
       0.0000117121   0.0000114166   7.2144846321 
       0.0000115506   0.0000113602   7.2144843037 
       0.0000115863   0.0000115863   7.2144843028 
       0.0000116348   0.0000117560   7.2144844809 
       0.0000116483   0.0000118439   7.2144845779 
       0.0000116483   0.0000118439   7.2144845644 
       0.0000116347   0.0000117560   7.2144844451 
       0.0000115863   0.0000115863   7.2144842560 
       0.0000115506   0.0000113602   7.2144842596 
       0.0000112480   0.0000112480   7.2144837404 
       0.0000113602   0.0000115506   7.2144843008 
       0.0000114166   0.0000117121   7.2144846596 
       0.0000114398   0.0000118013   7.2144839076 
       0.0000114398   0.0000118013   7.2144838979 
       0.0000114166   0.0000117121   7.2144846321 
       0.0000113602   0.0000115506   7.2144842596 
       0.0000112480   0.0000112480   7.2144836881 
       0.0000112390   0.0000112390   8.6573791192 
       0.0000113290   0.0000115345   8.6573794429 
       0.0000113967   0.0000117298   8.6573801272 
       0.0000114272   0.0000118233   8.6573797079 
       0.0000114272   0.0000118233   8.6573797003 
       0.0000113967   0.0000117298   8.6573801043 
       0.0000113290   0.0000115345   8.6573794036 
       0.0000112390   0.0000112390   8.6573790603 
       0.0000115345   0.0000113290   8.6573794429 
       0.0000115711   0.0000115711   8.6573799139 
       0.0000116235   0.0000117689   8.6573798332 
       0.0000116448   0.0000118619   8.6573798150 
       0.0000116448   0.0000118619   8.6573798129 
       0.0000116234   0.0000117689   8.6573798237 
       0.0000115711   0.0000115711   8.6573798895 
       0.0000115345   0.0000113290   8.6573794002 
       0.0000117298   0.0000113967   8.6573801272 
       0.0000117689   0.0000116235   8.6573798332 
       0.0000118154   0.0000118154   8.6573797533 
       0.0000118312   0.0000119078   8.6573800629 
       0.0000118312   0.0000119078   8.6573800625 
       0.0000118153   0.0000118154   8.6573797485 
       0.0000117689   0.0000116235   8.6573798158 
       0.0000117298   0.0000113967   8.6573800914 
       0.0000118233   0.0000114272   8.6573797079 
       0.0000118619   0.0000116448   8.6573798150 
       0.0000119078   0.0000118312   8.6573800629 
       0.0000119238   0.0000119238   8.6573809307 
       0.0000119239   0.0000119238   8.6573809298 
       0.0000119078   0.0000118312   8.6573800573 
       0.0000118619   0.0000116448   8.6573797978 
       0.0000118233   0.0000114272   8.6573796742 
       0.0000118233   0.0000114272   8.6573797003 
       0.0000118619   0.0000116448   8.6573798129 
       0.0000119078   0.0000118312   8.6573800625 
       0.0000119238   0.0000119239   8.6573809298 
       0.0000119239   0.0000119239   8.6573809289 
       0.0000119078   0.0000118312   8.6573800569 
       0.0000118619   0.0000116448   8.6573797957 
       0.0000118233   0.0000114272   8.6573796666 
       0.0000117298   0.0000113967   8.6573801043 
       0.0000117689   0.0000116234   8.6573798237 
       0.0000118154   0.0000118153   8.6573797485 
       0.0000118312   0.0000119078   8.6573800573 
       0.0000118312   0.0000119078   8.6573800569 
       0.0000118153   0.0000118153   8.6573797437 
       0.0000117689   0.0000116234   8.6573798062 
       0.0000117298   0.0000113967   8.6573800685 
       0.0000115345   0.0000113290   8.6573794036 
       0.0000115711   0.0000115711   8.6573798895 
       0.0000116235   0.0000117689   8.6573798158 
       0.0000116448   0.0000118619   8.6573797978 
       0.0000116448   0.0000118619   8.6573797957 
       0.0000116234   0.0000117689   8.6573798062 
       0.0000115711   0.0000115711   8.6573798651 
       0.0000115345   0.0000113290   8.6573793609 
       0.0000112390   0.0000112390   8.6573790603 
       0.0000113290   0.0000115345   8.6573794002 
       0.0000113967   0.0000117298   8.6573800914 
       0.0000114272   0.0000118233   8.6573796742 
       0.0000114272   0.0000118233   8.6573796666 
       0.0000113967   0.0000117298   8.6573800685 
       0.0000113290   0.0000115345   8.6573793609 
       0.0000112390   0.0000112390   8.6573790013 
       0.0000106995   0.0000106995  10.1002733697 
       0.0000109655   0.0000112959  10.1002733845 
       0.0000110638   0.0000114800  10.1002745460 
       0.0000111031   0.0000115808  10.1002733567 
       0.0000111031   0.0000115808  10.1002733463 
       0.0000110638   0.0000114800  10.1002745155 
       0.0000109655   0.0000112958  10.1002733384 
       0.0000106995   0.0000106995  10.1002732962 
       0.0000112959   0.0000109655  10.1002733845 
       0.0000113865   0.0000113865  10.1002745461 
       0.0000114545   0.0000115961  10.1002737701 
       0.0000114853   0.0000116915  10.1002741260 
       0.0000114853   0.0000116915  10.1002741154 
       0.0000114545   0.0000115961  10.1002737407 
       0.0000113865   0.0000113865  10.1002745025 
       0.0000112958   0.0000109655  10.1002733348 
       0.0000114800   0.0000110638  10.1002745460 
       0.0000115961   0.0000114545  10.1002737701 
       0.0000116533   0.0000116533  10.1002739311 
       0.0000116778   0.0000117500  10.1002744055 
       0.0000116778   0.0000117500  10.1002743953 
       0.0000116533   0.0000116533  10.1002739029 
       0.0000115961   0.0000114545  10.1002737308 
       0.0000114800   0.0000110638  10.1002745011 
       0.0000115808   0.0000111031  10.1002733567 
       0.0000116915   0.0000114853  10.1002741260 
       0.0000117500   0.0000116778  10.1002744055 
       0.0000117743   0.0000117743  10.1002755818 
       0.0000117743   0.0000117743  10.1002755722 
       0.0000117499   0.0000116778  10.1002743791 
       0.0000116916   0.0000114853  10.1002740892 
       0.0000115808   0.0000111031  10.1002733153 
       0.0000115808   0.0000111031  10.1002733463 
       0.0000116915   0.0000114853  10.1002741154 
       0.0000117500   0.0000116778  10.1002743953 
       0.0000117743   0.0000117743  10.1002755722 
       0.0000117743   0.0000117743  10.1002755626 
       0.0000117499   0.0000116778  10.1002743689 
       0.0000116916   0.0000114853  10.1002740787 
       0.0000115808   0.0000111031  10.1002733049 
       0.0000114800   0.0000110638  10.1002745155 
       0.0000115961   0.0000114545  10.1002737407 
       0.0000116533   0.0000116533  10.1002739029 
       0.0000116778   0.0000117499  10.1002743791 
       0.0000116778   0.0000117499  10.1002743689 
       0.0000116533   0.0000116533  10.1002738746 
       0.0000115961   0.0000114545  10.1002737014 
       0.0000114800   0.0000110638  10.1002744705 
       0.0000112958   0.0000109655  10.1002733384 
       0.0000113865   0.0000113865  10.1002745025 
       0.0000114545   0.0000115961  10.1002737308 
       0.0000114853   0.0000116916  10.1002740892 
       0.0000114853   0.0000116916  10.1002740787 
       0.0000114545   0.0000115961  10.1002737014 
       0.0000113865   0.0000113865  10.1002744588 
       0.0000112958   0.0000109655  10.1002732887 
       0.0000106995   0.0000106995  10.1002732962 
       0.0000109655   0.0000112958  10.1002733348 
       0.0000110638   0.0000114800  10.1002745011 
       0.0000111031   0.0000115808  10.1002733153 
       0.0000111031   0.0000115808  10.1002733049 
       0.0000110638   0.0000114800  10.1002744705 
       0.0000109655   0.0000112958  10.1002732887 
       0.0000106995   0.0000106995  10.1002732227 
      </DataArray>
    </PointData>
    <Points>
      <DataArray type="Float32" NumberOfComponents="3" format="ascii">
       0.0000000000   0.0000000000   0.0000000000 
       0.1428571492   0.0000000000   0.0000000000 
       0.2857142985   0.0000000000   0.0000000000 
       0.4285714626   0.0000000000   0.0000000000 
       0.5714285970   0.0000000000   0.0000000000 
       0.7142857313   0.0000000000   0.0000000000 
       0.8571429253   0.0000000000   0.0000000000 
       1.0000000000   0.0000000000   0.0000000000 
       0.0000000000   0.1428571492   0.0000000000 
       0.1428571492   0.1428571492   0.0000000000 
       0.2857142985   0.1428571492   0.0000000000 
       0.4285714626   0.1428571492   0.0000000000 
       0.5714285970   0.1428571492   0.0000000000 
       0.7142857313   0.1428571492   0.0000000000 
       0.8571429253   0.1428571492   0.0000000000 
       1.0000000000   0.1428571492   0.0000000000 
       0.0000000000   0.2857142985   0.0000000000 
       0.1428571492   0.2857142985   0.0000000000 
       0.2857142985   0.2857142985   0.0000000000 
       0.4285714626   0.2857142985   0.0000000000 
       0.5714285970   0.2857142985   0.0000000000 
       0.7142857313   0.2857142985   0.0000000000 
       0.8571429253   0.2857142985   0.0000000000 
       1.0000000000   0.2857142985   0.0000000000 
       0.0000000000   0.4285714626   0.0000000000 
       0.1428571492   0.4285714626   0.0000000000 
       0.2857142985   0.4285714626   0.0000000000 
       0.4285714626   0.4285714626   0.0000000000 
       0.5714285970   0.4285714626   0.0000000000 
       0.7142857313   0.4285714626   0.0000000000 
       0.8571429253   0.4285714626   0.0000000000 
       1.0000000000   0.4285714626   0.0000000000 
       0.0000000000   0.5714285970   0.0000000000 
       0.1428571492   0.5714285970   0.0000000000 
       0.2857142985   0.5714285970   0.0000000000 
       0.4285714626   0.5714285970   0.0000000000 
       0.5714285970   0.5714285970   0.0000000000 
       0.7142857313   0.5714285970   0.0000000000 
       0.8571429253   0.5714285970   0.0000000000 
       1.0000000000   0.5714285970   0.0000000000 
       0.0000000000   0.7142857313   0.0000000000 
       0.1428571492   0.7142857313   0.0000000000 
       0.2857142985   0.7142857313   0.0000000000 
       0.4285714626   0.7142857313   0.0000000000 
       0.5714285970   0.7142857313   0.0000000000 
       0.7142857313   0.7142857313   0.0000000000 
       0.8571429253   0.7142857313   0.0000000000 
       1.0000000000   0.7142857313   0.0000000000 
       0.0000000000   0.8571429253   0.0000000000 
       0.1428571492   0.8571429253   0.0000000000 
       0.2857142985   0.8571429253   0.0000000000 
       0.4285714626   0.8571429253   0.0000000000 
       0.5714285970   0.8571429253   0.0000000000 
       0.7142857313   0.8571429253   0.0000000000 
       0.8571429253   0.8571429253   0.0000000000 
       1.0000000000   0.8571429253   0.0000000000 
       0.0000000000   1.0000000000   0.0000000000 
       0.1428571492   1.0000000000   0.0000000000 
       0.2857142985   1.0000000000   0.0000000000 
       0.4285714626   1.0000000000   0.0000000000 
       0.5714285970   1.0000000000   0.0000000000 
       0.7142857313   1.0000000000   0.0000000000 
       0.8571429253   1.0000000000   0.0000000000 
       1.0000000000   1.0000000000   0.0000000000 
       0.0000000000   0.0000000000   0.1428571492 
       0.1428571492   0.0000000000   0.1428571492 
       0.2857142985   0.0000000000   0.1428571492 
       0.4285714626   0.0000000000   0.1428571492 