<VTKFile type="UnstructuredGrid" version="0.1" byte_order="LittleEndian">
  <UnstructuredGrid>
    <Piece NumberOfPoints="1000" NumberOfCells="729">
     <PointData Scalars="scalars">
      <DataArray type="Float32" Name="Displacement" NumberOfComponents="3" format="ascii">
       0.0000000000   0.0000000000   0.0000000000 
       0.0000000000   0.0000000000   0.0000000000 
       0.0000000000   0.0000000000   0.0000000000 
       0.0000000000   0.0000000000   0.0000000000 
       0.0000000000   0.0000000000   0.0000000000 
       0.0000000000   0.0000000000   0.0000000000 
       0.0000000000   0.0000000000   0.0000000000 
       0.0000000000   0.0000000000   0.0000000000 
       0.0000000000   0.0000000000   0.0000000000 
       0.0000000000   0.0000000000   0.0000000000 
       0.0000000000   0.0000000000   0.0000000000 
       0.0000000000   0.0000000000   0.0000000000 
       0.0000000000   0.0000000000   0.0000000000 
       0.0000000000   0.0000000000   0.0000000000 
       0.0000000000   0.0000000000   0.0000000000 
       0.0000000000   0.0000000000   0.0000000000 
       0.0000000000   0.0000000000   0.0000000000 
       0.0000000000   0.0000000000   0.0000000000 
       0.0000000000   0.0000000000   0.0000000000 
       0.0000000000   0.0000000000   0.0000000000 
       0.0000000000   0.0000000000   0.0000000000 
       0.0000000000   0.0000000000   0.0000000000 
       0.0000000000   0.0000000000   0.0000000000 
       0.0000000000   0.0000000000   0.0000000000 
       0.0000000000   0.0000000000   0.0000000000 
       0.0000000000   0.0000000000   0.0000000000 
       0.0000000000   0.0000000000   0.0000000000 
       0.0000000000   0.0000000000   0.0000000000 
       0.0000000000   0.0000000000   0.0000000000 
       0.0000000000   0.0000000000   0.0000000000 
       0.0000000000   0.0000000000   0.0000000000 
       0.0000000000   0.0000000000   0.0000000000 
       0.0000000000   0.0000000000   0.0000000000 
       0.0000000000   0.0000000000   0.0000000000 
       0.0000000000   0.0000000000   0.0000000000 
       0.0000000000   0.0000000000   0.0000000000 
       0.0000000000   0.0000000000   0.0000000000 
       0.0000000000   0.0000000000   0.0000000000 
       0.0000000000   0.0000000000   0.0000000000 
       0.0000000000   0.0000000000   0.0000000000 
       0.0000000000   0.0000000000   0.0000000000 
       0.0000000000   0.0000000000   0.0000000000 
       0.0000000000   0.0000000000   0.0000000000 
       0.0000000000   0.0000000000   0.0000000000 
       0.0000000000   0.0000000000   0.0000000000 
       0.0000000000   0.0000000000   0.0000000000 
       0.0000000000   0.0000000000   0.0000000000 
       0.0000000000   0.0000000000   0.0000000000 
       0.0000000000   0.0000000000   0.0000000000 
       0.0000000000   0.0000000000   0.0000000000 
       0.0000000000   0.0000000000   0.0000000000 
       0.0000000000   0.0000000000   0.0000000000 
       0.0000000000   0.0000000000   0.0000000000 
       0.0000000000   0.0000000000   0.0000000000 
       0.0000000000   0.0000000000   0.0000000000 
       0.0000000000   0.0000000000   0.0000000000 
       0.0000000000   0.0000000000   0.0000000000 
       0.0000000000   0.0000000000   0.0000000000 
       0.0000000000   0.0000000000   0.0000000000 
       0.0000000000   0.0000000000   0.0000000000 
       0.0000000000   0.0000000000   0.0000000000 
       0.0000000000   0.0000000000   0.0000000000 
       0.0000000000   0.0000000000   0.0000000000 
       0.0000000000   0.0000000000   0.0000000000 
       0.0000000000   0.0000000000   0.0000000000 
       0.0000000000   0.0000000000   0.0000000000 
       0.0000000000   0.0000000000   0.0000000000 
       0.0000000000   0.0000000000   0.0000000000 
       0.0000000000   0.0000000000   0.0000000000 
       0.0000000000   0.0000000000   0.0000000000 
       0.0000000000   0.0000000000   0.0000000000 
       0.0000000000   0.0000000000   0.0000000000 
       0.0000000000   0.0000000000   0.0000000000 
       0.0000000000   0.0000000000   0.0000000000 
       0.0000000000   0.0000000000   0.0000000000 
       0.0000000000   0.0000000000   0.0000000000 
       0.0000000000   0.0000000000   0.0000000000 
       0.0000000000   0.0000000000   0.0000000000 
       0.0000000000   0.0000000000   0.0000000000 
       0.0000000000   0.0000000000   0.0000000000 
       0.0000000000   0.0000000000   0.0000000000 
       0.0000000000   0.0000000000   0.0000000000 
       0.0000000000   0.0000000000   0.0000000000 
       0.0000000000   0.0000000000   0.0000000000 
       0.0000000000   0.0000000000   0.0000000000 
       0.0000000000   0.0000000000   0.0000000000 
       0.0000000000   0.0000000000   0.0000000000 
       0.0000000000   0.0000000000   0.0000000000 
       0.0000000000   0.0000000000   0.0000000000 
       0.0000000000   0.0000000000   0.0000000000 
       0.0000000000   0.0000000000   0.0000000000 
       0.0000000000   0.0000000000   0.0000000000 
       0.0000000000   0.0000000000   0.0000000000 
       0.0000000000   0.0000000000   0.0000000000 
       0.0000000000   0.0000000000   0.0000000000 
       0.0000000000   0.0000000000   0.0000000000 
       0.0000000000   0.0000000000   0.0000000000 
       0.0000000000   0.0000000000   0.0000000000 
       0.0000000000   0.0000000000   0.0000000000 
       0.0000000000   0.0000000000   0.0000000000 
       0.0000024421   0.0000024421   1.1222515923 
       0.0000024510   0.0000024656   1.1222519512 
       0.0000024558   0.0000024786   1.1222521440 
       0.0000024590   0.0000024873   1.1222527816 
       0.0000024597   0.0000024914   1.1222527165 
       0.0000024608   0.0000024914   1.1222527097 
       0.0000024580   0.0000024873   1.1222527638 
       0.0000024566   0.0000024786   1.1222521218 
       0.0000024504   0.0000024656   1.1222519326 
       0.0000024423   0.0000024421   1.1222515832 
       0.0000024656   0.0000024510   1.1222519512 
       0.0000024693   0.0000024693   1.1222526891 
       0.0000024722   0.0000024840   1.1222527475 
       0.0000024764   0.0000024942   1.1222529043 
       0.0000024743   0.0000024996   1.1222528512 
       0.0000024794   0.0000024996   1.1222528291 
       0.0000024719   0.0000024942   1.1222528469 
       0.0000024758   0.0000024840   1.1222526780 
       0.0000024670   0.0000024693   1.1222526352 
       0.0000024664   0.0000024510   1.1222519340 
       0.0000024786   0.0000024558   1.1222521440 
       0.0000024840   0.0000024722   1.1222527475 
       0.0000024843   0.0000024843   1.1222527033 
       0.0000024910   0.0000024915   1.1222527484 
       0.0000024854   0.0000024947   1.1222523117 
       0.0000024938   0.0000024947   1.1222522935 
       0.0000024834   0.0000024915   1.1222527010 
       0.0000024904   0.0000024843   1.1222526458 
       0.0000024802   0.0000024722   1.1222527028 
       0.0000024799   0.0000024558   1.1222521293 
       0.0000024873   0.0000024590   1.1222527816 
       0.0000024942   0.0000024764   1.1222529043 
       0.0000024915   0.0000024910   1.1222527484 
       0.0000025016   0.0000025016   1.1222526886 
       0.0000024927   0.0000025073   1.1222524168 
       0.0000025036   0.0000025073   1.1222524182 
       0.0000024918   0.0000025016   1.1222526921 
       0.0000024993   0.0000024910   1.1222527518 
       0.0000024892   0.0000024764   1.1222529052 
       0.0000024890   0.0000024590   1.1222527783 
       0.0000024914   0.0000024597   1.1222527165 
       0.0000024996   0.0000024743   1.1222528512 
       0.0000024947   0.0000024854   1.1222523117 
       0.0000025073   0.0000024927   1.1222524168 
       0.0000024963   0.0000024963   1.1222523597 
       0.0000025084   0.0000024963   1.1222523790 
       0.0000024964   0.0000024927   1.1222524664 
       0.0000025034   0.0000024854   1.1222523703 
       0.0000024941   0.0000024743   1.1222528934 
       0.0000024933   0.0000024597   1.1222527236 
       0.0000024914   0.0000024608   1.1222527097 
       0.0000024996   0.0000024794   1.1222528291 
       0.0000024947   0.0000024938   1.1222522935 
       0.0000025073   0.0000025036   1.1222524182 
       0.0000024963   0.0000025084   1.1222523790 
       0.0000025084   0.0000025084   1.1222523983 
       0.0000024964   0.0000025036   1.1222524678 
       0.0000025034   0.0000024938   1.1222523520 
       0.0000024941   0.0000024794   1.1222528712 
       0.0000024933   0.0000024608   1.1222527168 
       0.0000024873   0.0000024580   1.1222527638 
       0.0000024942   0.0000024719   1.1222528469 
       0.0000024915   0.0000024834   1.1222527010 
       0.0000025016   0.0000024918   1.1222526921 
       0.0000024927   0.0000024964   1.1222524664 
       0.0000025036   0.0000024964   1.1222524678 
       0.0000024918   0.0000024918   1.1222526956 
       0.0000024993   0.0000024834   1.1222527044 
       0.0000024892   0.0000024719   1.1222528478 
       0.0000024890   0.0000024580   1.1222527605 
       0.0000024786   0.0000024566   1.1222521218 
       0.0000024840   0.0000024758   1.1222526780 
       0.0000024843   0.0000024904   1.1222526458 
       0.0000024910   0.0000024993   1.1222527518 
       0.0000024854   0.0000025034   1.1222523703 
       0.0000024938   0.0000025034   1.1222523520 
       0.0000024834   0.0000024993   1.1222527044 
       0.0000024904   0.0000024904   1.1222525883 
       0.0000024802   0.0000024758   1.1222526332 
       0.0000024799   0.0000024566   1.1222521072 
       0.0000024656   0.0000024504   1.1222519326 
       0.0000024693   0.0000024670   1.1222526352 
       0.0000024722   0.0000024802   1.1222527028 
       0.0000024764   0.0000024892   1.1222529052 
       0.0000024743   0.0000024941   1.1222528934 
       0.0000024794   0.0000024941   1.1222528712 
       0.0000024719   0.0000024892   1.1222528478 
       0.0000024758   0.0000024802   1.1222526332 
       0.0000024670   0.0000024670   1.1222525813 
       0.0000024664   0.0000024504   1.1222519154 
       0.0000024421   0.0000024423   1.1222515832 
       0.0000024510   0.0000024664   1.1222519340 
       0.0000024558   0.0000024799   1.1222521293 
       0.0000024590   0.0000024890   1.1222527783 
       0.0000024597   0.0000024933   1.1222527236 
       0.0000024608   0.0000024933   1.1222527168 
       0.0000024580   0.0000024890   1.1222527605 
       0.0000024566   0.0000024799   1.1222521072 
       0.0000024504   0.0000024664   1.1222519154 
       0.0000024423   0.0000024423   1.1222515740 
       0.0000044391   0.0000044391   2.2445038630 
       0.0000044567   0.0000044858   2.2445046908 
       0.0000044663   0.0000045117   2.2445047897 
       0.0000044727   0.0000045290   2.2445052959 
       0.0000044741   0.0000045372   2.2445054713 
       0.0000044763   0.0000045372   2.2445054812 
       0.0000044708   0.0000045290   2.2445053210 
       0.0000044679   0.0000045117   2.2445048179 
       0.0000044557   0.0000044858   2.2445047080 
       0.0000044395   0.0000044391   2.2445038582 
       0.0000044858   0.0000044567   2.2445046908 
       0.0000044932   0.0000044932   2.2445049853 
       0.0000044988   0.0000045225   2.2445051817 
       0.0000045073   0.0000045427   2.2445051260 
       0.0000045033   0.0000045535   2.2445051014 
       0.0000045128   0.0000045535   2.2445051409 
       0.0000044987   0.0000045427   2.2445052277 
       0.0000045056   0.0000045225   2.2445053018 
       0.0000044889   0.0000044932   2.2445050715 
       0.0000044873   0.0000044567   2.2445047045 
       0.0000045117   0.0000044663   2.2445047897 
       0.0000045225   0.0000044988   2.2445051817 
       0.0000045230   0.0000045230   2.2445053163 
       0.0000045362   0.0000045374   2.2445051294 
       0.0000045256   0.0000045438   2.2445047266 
       0.0000045414   0.0000045438   2.2445047593 
       0.0000045219   0.0000045374   2.2445052135 
       0.0000045344   0.0000045230   2.2445054155 
       0.0000045153   0.0000044988   2.2445052527 
       0.0000045142   0.0000044663   2.2445048002 
       0.0000045290   0.0000044727   2.2445052959 
       0.0000045427   0.0000045073   2.2445051260 
       0.0000045374   0.0000045362   2.2445051294 
       0.0000045573   0.0000045573   2.2445052943 
       0.0000045402   0.0000045685   2.2445050275 
       0.0000045607   0.0000045685   2.2445050234 
       0.0000045388   0.0000045573   2.2445052833 
       0.0000045521   0.0000045362   2.2445051150 
       0.0000045333   0.0000045073   2.2445051122 
       0.0000045322   0.0000044727   2.2445052860 
       0.0000045372   0.0000044741   2.2445054713 
       0.0000045535   0.0000045033   2.2445051014 
       0.0000045438   0.0000045256   2.2445047266 
       0.0000045685   0.0000045402   2.2445050275 
       0.0000045473   0.0000045473   2.2445047680 
       0.0000045703   0.0000045473   2.2445047304 
       0.0000045478   0.0000045402   2.2445049299 
       0.0000045603   0.0000045256   2.2445046087 
       0.0000045430   0.0000045033   2.2445050102 
       0.0000045408   0.0000044741   2.2445054424 
       0.0000045372   0.0000044763   2.2445054812 
       0.0000045535   0.0000045128   2.2445051409 
       0.0000045438   0.0000045414   2.2445047593 
       0.0000045685   0.0000045607   2.2445050234 
       0.0000045473   0.0000045703   2.2445047304 
       0.0000045703   0.0000045703   2.2445046927 
       0.0000045478   0.0000045607   2.2445049258 
       0.0000045603   0.0000045414   2.2445046414 
       0.0000045430   0.0000045128   2.2445050498 
       0.0000045408   0.0000044763   2.2445054523 
       0.0000045290   0.0000044708   2.2445053210 
       0.0000045427   0.0000044987   2.2445052277 
       0.0000045374   0.0000045219   2.2445052135 
       0.0000045573   0.0000045388   2.2445052833 
       0.0000045402   0.0000045478   2.2445049299 
       0.0000045607   0.0000045478   2.2445049258 
       0.0000045388   0.0000045388   2.2445052724 
       0.0000045521   0.0000045219   2.2445051991 
       0.0000045333   0.0000044987   2.2445052139 
       0.0000045322   0.0000044708   2.2445053110 
       0.0000045117   0.0000044679   2.2445048179 
       0.0000045225   0.0000045056   2.2445053018 
       0.0000045230   0.0000045344   2.2445054155 
       0.0000045362   0.0000045521   2.2445051150 
       0.0000045256   0.0000045603   2.2445046087 
       0.0000045414   0.0000045603   2.2445046414 
       0.0000045219   0.0000045521   2.2445051991 
       0.0000045344   0.0000045344   2.2445055148 
       0.0000045153   0.0000045056   2.2445053728 
       0.0000045142   0.0000044679   2.2445048284 
       0.0000044858   0.0000044557   2.2445047080 
       0.0000044932   0.0000044889   2.2445050715 
       0.0000044988   0.0000045153   2.2445052527 
       0.0000045073   0.0000045333   2.2445051122 
       0.0000045033   0.0000045430   2.2445050102 
       0.0000045128   0.0000045430   2.2445050498 
       0.0000044987   0.0000045333   2.2445052139 
       0.0000045056   0.0000045153   2.2445053728 
       0.0000044889   0.0000044889   2.2445051577 
       0.0000044873   0.0000044557   2.2445047216 
       0.0000044391   0.0000044395   2.2445038582 
       0.0000044567   0.0000044873   2.2445047045 
       0.0000044663   0.0000045142   2.2445048002 
       0.0000044727   0.0000045322   2.2445052860 
       0.0000044741   0.0000045408   2.2445054424 
       0.0000044763   0.0000045408   2.2445054523 
       0.0000044708   0.0000045322   2.2445053110 
       0.0000044679   0.0000045142   2.2445048284 
       0.0000044557   0.0000044873   2.2445047216 
       0.0000044395   0.0000044395   2.2445038534 
       0.0000060344   0.0000060344   3.3667569709 
       0.0000060606   0.0000061036   3.3667576809 
       0.0000060747   0.0000061422   3.3667573789 
       0.0000060843   0.0000061680   3.3667571558 
       0.0000060864   0.0000061804   3.3667575444 
       0.0000060894   0.0000061804   3.3667575265 
       0.0000060816   0.0000061680   3.3667571086 
       0.0000060768   0.0000061422   3.3667573199 
       0.0000060592   0.0000061036   3.3667576308 
       0.0000060349   0.0000060344   3.3667569454 
       0.0000061036   0.0000060606   3.3667576809 
       0.0000061149   0.0000061149   3.3667577207 
       0.0000061229   0.0000061583   3.3667578826 
       0.0000061355   0.0000061882   3.3667576169 
       0.0000061300   0.0000062041   3.3667574860 
       0.0000061430   0.0000062041   3.3667574275 
       0.0000061238   0.0000061882   3.3667574650 
       0.0000061321   0.0000061583   3.3667576984 
       0.0000061089   0.0000061149   3.3667575775 
       0.0000061057   0.0000060606   3.3667576342 
       0.0000061422   0.0000060747   3.3667573789 
       0.0000061583   0.0000061229   3.3667578826 
       0.0000061590   0.0000061590   3.3667578117 
       0.0000061781   0.0000061808   3.3667575359 
       0.0000061635   0.0000061907   3.3667573375 
       0.0000061851   0.0000061907   3.3667572880 
       0.0000061587   0.0000061808   3.3667574074 
       0.0000061744   0.0000061590   3.3667576557 
       0.0000061485   0.0000061229   3.3667577610 
       0.0000061456   0.0000060747   3.3667573386 
       0.0000061680   0.0000060843   3.3667571558 
       0.0000061882   0.0000061355   3.3667576169 
       0.0000061808   0.0000061781   3.3667575359 
       0.0000062091   0.0000062091   3.3667578107 
       0.0000061857   0.0000062257   3.3667575090 
       0.0000062135   0.0000062257   3.3667575095 
       0.0000061841   0.0000062091   3.3667578115 
       0.0000062007   0.0000061781   3.3667575345 
       0.0000061754   0.0000061355   3.3667576112 
       0.0000061724   0.0000060843   3.3667571447 
       0.0000061804   0.0000060864   3.3667575444 
       0.0000062041   0.0000061300   3.3667574860 
       0.0000061907   0.0000061635   3.3667573375 
       0.0000062257   0.0000061857   3.3667575090 
       0.0000061965   0.0000061965   3.3667569526 
       0.0000062277   0.0000061965   3.3667569987 
       0.0000061976   0.0000061857   3.3667576274 
       0.0000062129   0.0000061635   3.3667574771 
       0.0000061898   0.0000061300   3.3667575859 
       0.0000061853   0.0000060864   3.3667575597 
       0.0000061804   0.0000060894   3.3667575265 
       0.0000062041   0.0000061430   3.3667574275 
       0.0000061907   0.0000061851   3.3667572880 
       0.0000062257   0.0000062135   3.3667575095 
       0.0000061965   0.0000062277   3.3667569987 
       0.0000062277   0.0000062277   3.3667570448 
       0.0000061976   0.0000062135   3.3667576279 
       0.0000062129   0.0000061851   3.3667574276 
       0.0000061898   0.0000061430   3.3667575274 
       0.0000061853   0.0000060894   3.3667575417 
       0.0000061680   0.0000060816   3.3667571086 
       0.0000061882   0.0000061238   3.3667574650 
       0.0000061808   0.0000061587   3.3667574074 
       0.0000062091   0.0000061841   3.3667578115 
       0.0000061857   0.0000061976   3.3667576274 
       0.0000062135   0.0000061976   3.3667576279 
       0.0000061841   0.0000061841   3.3667578122 
       0.0000062007   0.0000061587   3.3667574061 
       0.0000061754   0.0000061238   3.3667574593 
       0.0000061724   0.0000060816   3.3667570975 
       0.0000061422   0.0000060768   3.3667573199 
       0.0000061583   0.0000061321   3.3667576984 
       0.0000061590   0.0000061744   3.3667576557 
       0.0000061781   0.0000062007   3.3667575345 
       0.0000061635   0.0000062129   3.3667574771 
       0.0000061851   0.0000062129   3.3667574276 
       0.0000061587   0.0000062007   3.3667574061 
       0.0000061744   0.0000061744   3.3667574997 
       0.0000061485   0.0000061321   3.3667575768 
       0.0000061456   0.0000060768   3.3667572795 
       0.0000061036   0.0000060592   3.3667576308 
       0.0000061149   0.0000061089   3.3667575775 
       0.0000061229   0.0000061485   3.3667577610 
       0.0000061355   0.0000061754   3.3667576112 
       0.0000061300   0.0000061898   3.3667575859 
       0.0000061430   0.0000061898   3.3667575274 
       0.0000061238   0.0000061754   3.3667574593 
       0.0000061321   0.0000061485   3.3667575768 
       0.0000061089   0.0000061089   3.3667574343 
       0.0000061057   0.0000060592   3.3667575842 
       0.0000060344   0.0000060349   3.3667569454 
       0.0000060606   0.0000061057   3.3667576342 
       0.0000060747   0.0000061456   3.3667573386 
       0.0000060843   0.0000061724   3.3667571447 
       0.0000060864   0.0000061853   3.3667575597 
       0.0000060894   0.0000061853   3.3667575417 
       0.0000060816   0.0000061724   3.3667570975 
       0.0000060768   0.0000061456   3.3667572795 
       0.0000060592   0.0000061057   3.3667575842 
       0.0000060349   0.0000060349   3.3667569199 
       0.0000072700   0.0000072700   4.4890101978 
       0.0000073044   0.0000073608   4.4890096102 
       0.0000073228   0.0000074117   4.4890092877 
       0.0000073353   0.0000074459   4.4890090995 
       0.0000073383   0.0000074625   4.4890097398 
       0.0000073417   0.0000074625   4.4890097550 
       0.0000073322   0.0000074459   4.4890091378 
       0.0000073252   0.0000074117   4.4890093303 
       0.0000073028   0.0000073608   4.4890096344 
       0.0000072706   0.0000072700   4.4890101864 
       0.0000073608   0.0000073044   4.4890096102 
       0.0000073755   0.0000073755   4.4890096643 
       0.0000073860   0.0000074325   4.4890095261 
       0.0000074020   0.0000074714   4.4890097491 
       0.0000073961   0.0000074921   4.4890097613 
       0.0000074110   0.0000074921   4.4890098240 
       0.0000073886   0.0000074714   4.4890099102 
       0.0000073966   0.0000074325   4.4890097158 
       0.0000073687   0.0000073755   4.4890097992 
       0.0000073631   0.0000073044   4.4890096288 
       0.0000074117   0.0000073228   4.4890092877 
       0.0000074325   0.0000073860   4.4890095261 
       0.0000074340   0.0000074340   4.4890093567 
       0.0000074576   0.0000074635   4.4890096739 
       0.0000074409   0.0000074771   4.4890096905 
       0.0000074656   0.0000074771   4.4890097431 
       0.0000074352   0.0000074635   4.4890098091 
       0.0000074517   0.0000074340   4.4890095158 
       0.0000074211   0.0000073860   4.4890096388 
       0.0000074155   0.0000073228   4.4890093019 
       0.0000074459   0.0000073353   4.4890090995 
       0.0000074714   0.0000074020   4.4890097491 
       0.0000074635   0.0000074576   4.4890096739 
       0.0000074978   0.0000074978   4.4890098417 
       0.0000074708   0.0000075192   4.4890095609 
       0.0000075028   0.0000075192   4.4890095561 
       0.0000074690   0.0000074978   4.4890098286 
       0.0000074864   0.0000074576   4.4890096556 
       0.0000074568   0.0000074020   4.4890097295 
       0.0000074509   0.0000073353   4.4890090818 
       0.0000074625   0.0000073383   4.4890097398 
       0.0000074921   0.0000073961   4.4890097613 
       0.0000074771   0.0000074409   4.4890096905 
       0.0000075192   0.0000074708   4.4890095609 
       0.0000074855   0.0000074855   4.4890090839 
       0.0000075213   0.0000074855   4.4890090266 
       0.0000074869   0.0000074708   4.4890094121 
       0.0000075027   0.0000074409   4.4890095100 
       0.0000074757   0.0000073961   4.4890096206 
       0.0000074681   0.0000073383   4.4890096926 
       0.0000074625   0.0000073417   4.4890097550 
       0.0000074921   0.0000074110   4.4890098240 
       0.0000074771   0.0000074656   4.4890097431 
       0.0000075192   0.0000075028   4.4890095561 
       0.0000074855   0.0000075213   4.4890090266 
       0.0000075213   0.0000075213   4.4890089693 
       0.0000074869   0.0000075028   4.4890094074 
       0.0000075027   0.0000074656   4.4890095627 
       0.0000074757   0.0000074110   4.4890096833 
       0.0000074681   0.0000073417   4.4890097079 
       0.0000074459   0.0000073322   4.4890091378 
       0.0000074714   0.0000073886   4.4890099102 
       0.0000074635   0.0000074352   4.4890098091 
       0.0000074978   0.0000074690   4.4890098286 
       0.0000074708   0.0000074869   4.4890094121 
       0.0000075028   0.0000074869   4.4890094074 
       0.0000074690   0.0000074690   4.4890098155 
       0.0000074864   0.0000074352   4.4890097909 
       0.0000074568   0.0000073886   4.4890098906 
       0.0000074509   0.0000073322   4.4890091202 
       0.0000074117   0.0000073252   4.4890093303 
       0.0000074325   0.0000073966   4.4890097158 
       0.0000074340   0.0000074517   4.4890095158 
       0.0000074576   0.0000074864   4.4890096556 
       0.0000074409   0.0000075027   4.4890095100 
       0.0000074656   0.0000075027   4.4890095627 
       0.0000074352   0.0000074864   4.4890097909 
       0.0000074517   0.0000074517   4.4890096748 
       0.0000074211   0.0000073966   4.4890098284 
       0.0000074155   0.0000073252   4.4890093445 
       0.0000073608   0.0000073028   4.4890096344 
       0.0000073755   0.0000073687   4.4890097992 
       0.0000073860   0.0000074211   4.4890096388 
       0.0000074020   0.0000074568   4.4890097295 
       0.0000073961   0.0000074757   4.4890096206 
       0.0000074110   0.0000074757   4.4890096833 
       0.0000073886   0.0000074568   4.4890098906 
       0.0000073966   0.0000074211   4.4890098284 
       0.0000073687   0.0000073687   4.4890099340 
       0.0000073631   0.0000073028   4.4890096530 
       0.0000072700   0.0000072706   4.4890101864 
       0.0000073044   0.0000073631   4.4890096288 
       0.0000073228   0.0000074155   4.4890093019 
       0.0000073353   0.0000074509   4.4890090818 
       0.0000073383   0.0000074681   4.4890096926 
       0.0000073417   0.0000074681   4.4890097079 
       0.0000073322   0.0000074509   4.4890091202 
       0.0000073252   0.0000074155   4.4890093445 
       0.0000073028   0.0000073631   4.4890096530 
       0.0000072706   0.0000072706   4.4890101750 
       0.0000081855   0.0000081855   5.6112637165 
       0.0000082275   0.0000082964   5.6112622301 
       0.0000082499   0.0000083591   5.6112620127 
       0.0000082649   0.0000084018   5.6112617217 
       0.0000082691   0.0000084227   5.6112618531 
       0.0000082726   0.0000084227   5.6112618312 
       0.0000082618   0.0000084018   5.6112616637 
       0.0000082524   0.0000083591   5.6112619392 
       0.0000082259   0.0000082964   5.6112621659 
       0.0000081861   0.0000081855   5.6112636799 
       0.0000082964   0.0000082275   5.6112622301 
       0.0000083141   0.0000083141   5.6112625208 
       0.0000083274   0.0000083836   5.6112621601 
       0.0000083458   0.0000084309   5.6112622570 
       0.0000083406   0.0000084559   5.6112623065 
       0.0000083557   0.0000084559   5.6112622369 
       0.0000083321   0.0000084309   5.6112620763 
       0.0000083382   0.0000083836   5.6112619400 
       0.0000083072   0.0000083141   5.6112623476 
       0.0000082988   0.0000082275   5.6112621697 
       0.0000083591   0.0000082499   5.6112620127 
       0.0000083836   0.0000083274   5.6112621601 
       0.0000083872   0.0000083872   5.6112619811 
       0.0000084130   0.0000084249   5.6112621380 
       0.0000083967   0.0000084426   5.6112622654 
       0.0000084219   0.0000084426   5.6112622071 
       0.0000083903   0.0000084249   5.6112619863 
       0.0000084052   0.0000083872   5.6112617960 
       0.0000083721   0.0000083274   5.6112620141 
       0.0000083631   0.0000082499   5.6112619605 
       0.0000084018   0.0000082649   5.6112617217 
       0.0000084309   0.0000083458   5.6112622570 
       0.0000084249   0.0000084130   5.6112621380 
       0.0000084616   0.0000084616   5.6112617978 
       0.0000084347   0.0000084872   5.6112615475 
       0.0000084672   0.0000084872   5.6112615489 
       0.0000084322   0.0000084616   5.6112618003 
       0.0000084481   0.0000084130   5.6112621376 
       0.0000084160   0.0000083458   5.6112622495 
       0.0000084069   0.0000082649   5.6112617047 
       0.0000084227   0.0000082691   5.6112618531 
       0.0000084559   0.0000083406   5.6112623065 
       0.0000084426   0.0000083967   5.6112622654 
       0.0000084872   0.0000084347   5.6112615475 
       0.0000084536   0.0000084536   5.6112612251 
       0.0000084900   0.0000084536   5.6112612807 
       0.0000084544   0.0000084347   5.6112616901 
       0.0000084686   0.0000083967   5.6112624327 
       0.0000084392   0.0000083406   5.6112624247 
       0.0000084284   0.0000082691   5.6112618677 
       0.0000084227   0.0000082726   5.6112618312 
       0.0000084559   0.0000083557   5.6112622369 
       0.0000084426   0.0000084219   5.6112622071 
       0.0000084872   0.0000084672   5.6112615489 
       0.0000084536   0.0000084900   5.6112612807 
       0.0000084900   0.0000084900   5.6112613362 
       0.0000084544   0.0000084672   5.6112616914 
       0.0000084686   0.0000084219   5.6112623745 
       0.0000084392   0.0000083557   5.6112623552 
       0.0000084284   0.0000082726   5.6112618457 
       0.0000084018   0.0000082618   5.6112616637 
       0.0000084309   0.0000083321   5.6112620763 
       0.0000084249   0.0000083903   5.6112619863 
       0.0000084616   0.0000084322   5.6112618003 
       0.0000084347   0.0000084544   5.6112616901 
       0.0000084672   0.0000084544   5.6112616914 
       0.0000084322   0.0000084322   5.6112618027 
       0.0000084481   0.0000083903   5.6112619859 
       0.0000084160   0.0000083321   5.6112620688 
       0.0000084069   0.0000082618   5.6112616467 
       0.0000083591   0.0000082524   5.6112619392 
       0.0000083836   0.0000083382   5.6112619400 
       0.0000083872   0.0000084052   5.6112617960 
       0.0000084130   0.0000084481   5.6112621376 
       0.0000083967   0.0000084686   5.6112624327 
       0.0000084219   0.0000084686   5.6112623745 
       0.0000083903   0.0000084481   5.6112619859 
       0.0000084052   0.0000084052   5.6112616110 
       0.0000083721   0.0000083382   5.6112617939 
       0.0000083631   0.0000082524   5.6112618870 
       0.0000082964   0.0000082259   5.6112621659 
       0.0000083141   0.0000083072   5.6112623476 