<VTKFile type="UnstructuredGrid" version="0.1" byte_order="LittleEndian">
  <UnstructuredGrid>
    <Piece NumberOfPoints="512" NumberOfCells="343">
     <PointData Scalars="scalars">
      <DataArray type="Float32" Name="Displacement" NumberOfComponents="3" format="ascii">
       0.0000000000   0.0000000000   0.0000000000 
       0.0000000000   0.0000000000   0.0000000000 
       0.0000000000   0.0000000000   0.0000000000 
       0.0000000000   0.0000000000   0.0000000000 
       0.0000000000   0.0000000000   0.0000000000 
       0.0000000000   0.0000000000   0.0000000000 
       0.0000000000   0.0000000000   0.0000000000 
       0.0000000000   0.0000000000   0.0000000000 
       0.0000000000   0.0000000000   0.0000000000 
       0.0000000000   0.0000000000   0.0000000000 
       0.0000000000   0.0000000000   0.0000000000 
       0.0000000000   0.0000000000   0.0000000000 
       0.0000000000   0.0000000000   0.0000000000 
       0.0000000000   0.0000000000   0.0000000000 
       0.0000000000   0.0000000000   0.0000000000 
       0.0000000000   0.0000000000   0.0000000000 
       0.0000000000   0.0000000000   0.0000000000 
       0.0000000000   0.0000000000   0.0000000000 
       0.0000000000   0.0000000000   0.0000000000 
       0.0000000000   0.0000000000   0.0000000000 
       0.0000000000   0.0000000000   0.0000000000 
       0.0000000000   0.0000000000   0.0000000000 
       0.0000000000   0.0000000000   0.0000000000 
       0.0000000000   0.0000000000   0.0000000000 
       0.0000000000   0.0000000000   0.0000000000 
       0.0000000000   0.0000000000   0.0000000000 
       0.0000000000   0.0000000000   0.0000000000 
       0.0000000000   0.0000000000   0.0000000000 
       0.0000000000   0.0000000000   0.0000000000 
       0.0000000000   0.0000000000   0.0000000000 
       0.0000000000   0.0000000000   0.0000000000 
       0.0000000000   0.0000000000   0.0000000000 
       0.0000000000   0.0000000000   0.0000000000 
       0.0000000000   0.0000000000   0.0000000000 
       0.0000000000   0.0000000000   0.0000000000 
       0.0000000000   0.0000000000   0.0000000000 
       0.0000000000   0.0000000000   0.0000000000 
       0.0000000000   0.0000000000   0.0000000000 
       0.0000000000   0.0000000000   0.0000000000 
       0.0000000000   0.0000000000   0.0000000000 
       0.0000000000   0.0000000000   0.0000000000 
       0.0000000000   0.0000000000   0.0000000000 
       0.0000000000   0.0000000000   0.0000000000 
       0.0000000000   0.0000000000   0.0000000000 
       0.0000000000   0.0000000000   0.0000000000 
       0.0000000000   0.0000000000   0.0000000000 
       0.0000000000   0.0000000000   0.0000000000 
       0.0000000000   0.0000000000   0.0000000000 
       0.0000000000   0.0000000000   0.0000000000 
       0.0000000000   0.0000000000   0.0000000000 
       0.0000000000   0.0000000000   0.0000000000 
       0.0000000000   0.0000000000   0.0000000000 
       0.0000000000   0.0000000000   0.0000000000 
       0.0000000000   0.0000000000   0.0000000000 
       0.0000000000   0.0000000000   0.0000000000 
       0.0000000000   0.0000000000   0.0000000000 
       0.0000000000   0.0000000000   0.0000000000 
       0.0000000000   0.0000000000   0.0000000000 
       0.0000000000   0.0000000000   0.0000000000 
       0.0000000000   0.0000000000   0.0000000000 
       0.0000000000   0.0000000000   0.0000000000 
       0.0000000000   0.0000000000   0.0000000000 
       0.0000000000   0.0000000000   0.0000000000 
       0.0000000000   0.0000000000   0.0000000000 
       0.0000032347   0.0000032347   1.4428972918 
       0.0000032382   0.0000032859   1.4428959928 
       0.0000032663   0.0000033091   1.4428964692 
       0.0000032487   0.0000033181   1.4428962956 
       0.0000032652   0.0000033181   1.4428962856 
       0.0000032523   0.0000033091   1.4428964446 
       0.0000032476   0.0000032859   1.4428959662 
       0.0000032310   0.0000032347   1.4428972749 
       0.0000032859   0.0000032382   1.4428959928 
       0.0000032448   0.0000032448   1.4428963101 
       0.0000033301   0.0000032612   1.4428963454 
       0.0000032462   0.0000032770   1.4428961815 
       0.0000033174   0.0000032770   1.4428961554 
       0.0000032697   0.0000032612   1.4428962827 
       0.0000032851   0.0000032448   1.4428962484 
       0.0000032720   0.0000032382   1.4428959688 
       0.0000033091   0.0000032663   1.4428964692 
       0.0000032612   0.0000033301   1.4428963454 
       0.0000033637   0.0000033637   1.4428964243 
       0.0000032484   0.0000033725   1.4428960695 
       0.0000033622   0.0000033725   1.4428960626 
       0.0000032673   0.0000033637   1.4428964065 
       0.0000033254   0.0000033301   1.4428963253 
       0.0000032869   0.0000032663   1.4428964568 
       0.0000033181   0.0000032487   1.4428962956 
       0.0000032770   0.0000032462   1.4428961815 
       0.0000033725   0.0000032484   1.4428960695 
       0.0000032524   0.0000032524   1.4428960841 
       0.0000033896   0.0000032524   1.4428961068 
       0.0000032564   0.0000032484   1.4428961210 
       0.0000033543   0.0000032462   1.4428962252 
       0.0000032914   0.0000032487   1.4428963003 
       0.0000033181   0.0000032652   1.4428962856 
       0.0000032770   0.0000033174   1.4428961554 
       0.0000033725   0.0000033622   1.4428960626 
       0.0000032524   0.0000033896   1.4428961068 
       0.0000033896   0.0000033896   1.4428961295 
       0.0000032564   0.0000033622   1.4428961141 
       0.0000033543   0.0000033174   1.4428961991 
       0.0000032914   0.0000032652   1.4428962903 
       0.0000033091   0.0000032523   1.4428964446 
       0.0000032612   0.0000032697   1.4428962827 
       0.0000033637   0.0000032673   1.4428964065 
       0.0000032484   0.0000032564   1.4428961210 
       0.0000033622   0.0000032564   1.4428961141 
       0.0000032673   0.0000032673   1.4428963888 
       0.0000033254   0.0000032697   1.4428962625 
       0.0000032869   0.0000032523   1.4428964322 
       0.0000032859   0.0000032476   1.4428959662 
       0.0000032448   0.0000032851   1.4428962484 
       0.0000033301   0.0000033254   1.4428963253 
       0.0000032462   0.0000033543   1.4428962252 
       0.0000033174   0.0000033543   1.4428961991 
       0.0000032697   0.0000033254   1.4428962625 
       0.0000032851   0.0000032851   1.4428961867 
       0.0000032720   0.0000032476   1.4428959422 
       0.0000032347   0.0000032310   1.4428972749 
       0.0000032382   0.0000032720   1.4428959688 
       0.0000032663   0.0000032869   1.4428964568 
       0.0000032487   0.0000032914   1.4428963003 
       0.0000032652   0.0000032914   1.4428962903 
       0.0000032523   0.0000032869   1.4428964322 
       0.0000032476   0.0000032720   1.4428959422 
       0.0000032310   0.0000032310   1.4428972580 
       0.0000057456   0.0000057456   2.8857928184 
       0.0000057554   0.0000058442   2.8857921463 
       0.0000058061   0.0000058891   2.8857926489 
       0.0000057758   0.0000059069   2.8857921720 
       0.0000058057   0.0000059069   2.8857921828 
       0.0000057808   0.0000058891   2.8857926721 
       0.0000057723   0.0000058442   2.8857921605 
       0.0000057389   0.0000057456   2.8857928024 
       0.0000058442   0.0000057554   2.8857921463 
       0.0000057747   0.0000057747   2.8857921060 
       0.0000059242   0.0000058098   2.8857923632 
       0.0000057768   0.0000058413   2.8857922448 
       0.0000059062   0.0000058413   2.8857922866 
       0.0000058146   0.0000058098   2.8857924603 
       0.0000058479   0.0000057747   2.8857921898 
       0.0000058189   0.0000057554   2.8857921530 
       0.0000058891   0.0000058061   2.8857926489 
       0.0000058098   0.0000059242   2.8857923632 
       0.0000059868   0.0000059868   2.8857923513 
       0.0000057848   0.0000060037   2.8857920485 
       0.0000059917   0.0000060037   2.8857920566 
       0.0000058116   0.0000059868   2.8857923698 
       0.0000059265   0.0000059242   2.8857923762 
       0.0000058487   0.0000058061   2.8857926390 
       0.0000059069   0.0000057758   2.8857921720 
       0.0000058413   0.0000057768   2.8857922448 
       0.0000060037   0.0000057848   2.8857920485 
       0.0000057944   0.0000057944   2.8857921502 
       0.0000060436   0.0000057944   2.8857921051 
       0.0000057926   0.0000057848   2.8857919426 
       0.0000059819   0.0000057768   2.8857921438 
       0.0000058583   0.0000057758   2.8857921334 
       0.0000059069   0.0000058057   2.8857921828 
       0.0000058413   0.0000059062   2.8857922866 
       0.0000060037   0.0000059917   2.8857920566 
       0.0000057944   0.0000060436   2.8857921051 
       0.0000060436   0.0000060436   2.8857920600 
       0.0000057926   0.0000059917   2.8857919507 
       0.0000059819   0.0000059062   2.8857921857 
       0.0000058583   0.0000058057   2.8857921441 
       0.0000058891   0.0000057808   2.8857926721 
       0.0000058098   0.0000058146   2.8857924603 
       0.0000059868   0.0000058116   2.8857923698 
       0.0000057848   0.0000057926   2.8857919426 
       0.0000059917   0.0000057926   2.8857919507 
       0.0000058116   0.0000058116   2.8857923883 
       0.0000059265   0.0000058146   2.8857924733 
       0.0000058487   0.0000057808   2.8857926622 
       0.0000058442   0.0000057723   2.8857921605 
       0.0000057747   0.0000058479   2.8857921898 
       0.0000059242   0.0000059265   2.8857923762 
       0.0000057768   0.0000059819   2.8857921438 
       0.0000059062   0.0000059819   2.8857921857 
       0.0000058146   0.0000059265   2.8857924733 
       0.0000058479   0.0000058479   2.8857922735 
       0.0000058189   0.0000057723   2.8857921671 
       0.0000057456   0.0000057389   2.8857928024 
       0.0000057554   0.0000058189   2.8857921530 
       0.0000058061   0.0000058487   2.8857926390 
       0.0000057758   0.0000058583   2.8857921334 
       0.0000058057   0.0000058583   2.8857921441 
       0.0000057808   0.0000058487   2.8857926622 
       0.0000057723   0.0000058189   2.8857921671 
       0.0000057389   0.0000057389   2.8857927864 
       0.0000076147   0.0000076147   4.3286869089 
       0.0000076346   0.0000077549   4.3286886637 
       0.0000077001   0.0000078195   4.3286886004 
       0.0000076643   0.0000078462   4.3286880466 
       0.0000077022   0.0000078462   4.3286880217 
       0.0000076680   0.0000078195   4.3286885385 
       0.0000076561   0.0000077549   4.3286885955 
       0.0000076063   0.0000076147   4.3286868624 
       0.0000077549   0.0000076346   4.3286886637 
       0.0000076746   0.0000076746   4.3286887113 
       0.0000078581   0.0000077304   4.3286883883 
       0.0000076781   0.0000077762   4.3286882211 
       0.0000078420   0.0000077762   4.3286881565 
       0.0000077193   0.0000077304   4.3286882327 
       0.0000077672   0.0000076746   4.3286885572 
       0.0000077229   0.0000076346   4.3286886009 
       0.0000078195   0.0000077001   4.3286886004 
       0.0000077304   0.0000078581   4.3286883883 
       0.0000079437   0.0000079437   4.3286881079 
       0.0000076977   0.0000079683   4.3286881331 
       0.0000079597   0.0000079683   4.3286881114 
       0.0000077218   0.0000079437   4.3286880531 
       0.0000078783   0.0000078581   4.3286883277 
       0.0000077684   0.0000077001   4.3286885647 
       0.0000078462   0.0000076643   4.3286880466 
       0.0000077762   0.0000076781   4.3286882211 
       0.0000079683   0.0000076977   4.3286881331 
       0.0000077150   0.0000077150   4.3286880115 
       0.0000080306   0.0000077150   4.3286880578 
       0.0000077010   0.0000076977   4.3286882374 
       0.0000079542   0.0000076781   4.3286883073 
       0.0000077847   0.0000076643   4.3286880505 
       0.0000078462   0.0000077022   4.3286880217 
       0.0000077762   0.0000078420   4.3286881565 
       0.0000079683   0.0000079597   4.3286881114 
       0.0000077150   0.0000080306   4.3286880578 
       0.0000080306   0.0000080306   4.3286881040 
       0.0000077010   0.0000079597   4.3286882158 
       0.0000079542   0.0000078420   4.3286882427 
       0.0000077847   0.0000077022   4.3286880256 
       0.0000078195   0.0000076680   4.3286885385 
       0.0000077304   0.0000077193   4.3286882327 
       0.0000079437   0.0000077218   4.3286880531 
       0.0000076977   0.0000077010   4.3286882374 
       0.0000079597   0.0000077010   4.3286882158 
       0.0000077218   0.0000077218   4.3286879982 
       0.0000078783   0.0000077193   4.3286881721 
       0.0000077684   0.0000076680   4.3286885028 
       0.0000077549   0.0000076561   4.3286885955 
       0.0000076746   0.0000077672   4.3286885572 
       0.0000078581   0.0000078783   4.3286883277 
       0.0000076781   0.0000079542   4.3286883073 
       0.0000078420   0.0000079542   4.3286882427 
       0.0000077193   0.0000078783   4.3286881721 
       0.0000077672   0.0000077672   4.3286884031 
       0.0000077229   0.0000076561   4.3286885328 
       0.0000076147   0.0000076063   4.3286868624 
       0.0000076346   0.0000077229   4.3286886009 
       0.0000077001   0.0000077684   4.3286885647 
       0.0000076643   0.0000077847   4.3286880505 
       0.0000077022   0.0000077847   4.3286880256 
       0.0000076680   0.0000077684   4.3286885028 
       0.0000076561   0.0000077229   4.3286885328 
       0.0000076063   0.0000076063   4.3286868160 
       0.0000089190   0.0000089190   5.7715819460 
       0.0000089509   0.0000090934   5.7715845371 
       0.0000090235   0.0000091768   5.7715842243 
       0.0000089899   0.0000092135   5.7715834538 
       0.0000090288   0.0000092135   5.7715834666 
       0.0000089905   0.0000091768   5.7715842503 
       0.0000089729   0.0000090934   5.7715845472 
       0.0000089104   0.0000089190   5.7715819115 
       0.0000090934   0.0000089509   5.7715845371 
       0.0000090179   0.0000090179   5.7715836733 
       0.0000092065   0.0000090944   5.7715837823 
       0.0000090264   0.0000091513   5.7715837673 
       0.0000091948   0.0000091513   5.7715838238 
       0.0000090639   0.0000090944   5.7715839121 
       0.0000091130   0.0000090179   5.7715837814 
       0.0000090605   0.0000089509   5.7715845365 
       0.0000091768   0.0000090235   5.7715842243 
       0.0000090944   0.0000092065   5.7715837823 
       0.0000093107   0.0000093107   5.7715833156 
       0.0000090641   0.0000093447   5.7715835831 
       0.0000093333   0.0000093447   5.7715835967 
       0.0000090828   0.0000093107   5.7715833456 
       0.0000092463   0.0000092065   5.7715838011 
       0.0000091243   0.0000090235   5.7715842040 
       0.0000092135   0.0000089899   5.7715834538 
       0.0000091513   0.0000090264   5.7715837673 
       0.0000093447   0.0000090641   5.7715835831 
       0.0000090913   0.0000090913   5.7715837391 
       0.0000094156   0.0000090913   5.7715836830 
       0.0000090701   0.0000090641   5.7715834503 
       0.0000093342   0.0000090264   5.7715836373 
       0.0000091503   0.0000089899   5.7715833965 
       0.0000092135   0.0000090288   5.7715834666 
       0.0000091513   0.0000091948   5.7715838238 
       0.0000093447   0.0000093333   5.7715835967 
       0.0000090913   0.0000094156   5.7715836830 
       0.0000094156   0.0000094156   5.7715836269 
       0.0000090701   0.0000093333   5.7715834638 
       0.0000093342   0.0000091948   5.7715836938 
       0.0000091503   0.0000090288   5.7715834093 
       0.0000091768   0.0000089905   5.7715842503 
       0.0000090944   0.0000090639   5.7715839121 
       0.0000093107   0.0000090828   5.7715833456 
       0.0000090641   0.0000090701   5.7715834503 
       0.0000093333   0.0000090701   5.7715834638 
       0.0000090828   0.0000090828   5.7715833755 
       0.0000092463   0.0000090639   5.7715839309 
       0.0000091243   0.0000089905   5.7715842300 
       0.0000090934   0.0000089729   5.7715845472 
       0.0000090179   0.0000091130   5.7715837814 
       0.0000092065   0.0000092463   5.7715838011 
       0.0000090264   0.0000093342   5.7715836373 
       0.0000091948   0.0000093342   5.7715836938 
       0.0000090639   0.0000092463   5.7715839309 
       0.0000091130   0.0000091130   5.7715838896 
       0.0000090605   0.0000089729   5.7715845466 
       0.0000089190   0.0000089104   5.7715819115 
       0.0000089509   0.0000090605   5.7715845365 
       0.0000090235   0.0000091243   5.7715842040 
       0.0000089899   0.0000091503   5.7715833965 
       0.0000090288   0.0000091503   5.7715834093 
       0.0000089905   0.0000091243   5.7715842300 
       0.0000089729   0.0000090605   5.7715845466 
       0.0000089104   0.0000089104   5.7715818769 
       0.0000097197   0.0000097197   7.2144791109 
       0.0000097704   0.0000099249   7.2144792923 
       0.0000098405   0.0000100262   7.2144798033 
       0.0000098167   0.0000100757   7.2144789018 
       0.0000098495   0.0000100757   7.2144788757 
       0.0000098127   0.0000100262   7.2144797368 
       0.0000097890   0.0000099249   7.2144792138 
       0.0000097124   0.0000097197   7.2144790458 
       0.0000099249   0.0000097704   7.2144792923 
       0.0000098684   0.0000098684   7.2144793494 
       0.0000100352   0.0000099658   7.2144793374 
       0.0000098863   0.0000100313   7.2144790170 
       0.0000100283   0.0000100313   7.2144789546 
       0.0000099149   0.0000099658   7.2144791858 
       0.0000099486   0.0000098684   7.2144791939 
       0.0000098972   0.0000097704   7.2144792173 
       0.0000100262   0.0000098405   7.2144798033 
       0.0000099658   0.0000100352   7.2144793374 
       0.0000101554   0.0000101554   7.2144788705 
       0.0000099491   0.0000102021   7.2144786047 
       0.0000101761   0.0000102021   7.2144785806 
       0.0000099631   0.0000101554   7.2144788089 
       0.0000100939   0.0000100352   7.2144792666 
       0.0000099819   0.0000098405   7.2144797549 
       0.0000100757   0.0000098167   7.2144789018 
       0.0000100313   0.0000098863   7.2144790170 
       0.0000102021   0.0000099491   7.2144786047 
       0.0000099897   0.0000099897   7.2144791026 
       0.0000102631   0.0000099897   7.2144791392 
       0.0000099705   0.0000099491   7.2144786855 
       0.0000101856   0.0000098863   7.2144790781 
       0.0000100224   0.0000098167   7.2144788900 
       0.0000100757   0.0000098495   7.2144788757 
       0.0000100313   0.0000100283   7.2144789546 
       0.0000102021   0.0000101761   7.2144785806 
       0.0000099897   0.0000102631   7.2144791392 
       0.0000102631   0.0000102631   7.2144791757 
       0.0000099705   0.0000101761   7.2144786614 
       0.0000101856   0.0000100283   7.2144790157 
       0.0000100224   0.0000098495   7.2144788638 
       0.0000100262   0.0000098127   7.2144797368 
       0.0000099658   0.0000099149   7.2144791858 
       0.0000101554   0.0000099631   7.2144788089 
       0.0000099491   0.0000099705   7.2144786855 
       0.0000101761   0.0000099705   7.2144786614 
       0.0000099631   0.0000099631   7.2144787472 
       0.0000100939   0.0000099149   7.2144791150 
       0.0000099819   0.0000098127   7.2144796884 
       0.0000099249   0.0000097890   7.2144792138 
       0.0000098684   0.0000099486   7.2144791939 
       0.0000100352   0.0000100939   7.2144792666 
       0.0000098863   0.0000101856   7.2144790781 
       0.0000100283   0.0000101856   7.2144790157 
       0.0000099149   0.0000100939   7.2144791150 
       0.0000099486   0.0000099486   7.2144790385 
       0.0000098972   0.0000097890   7.2144791388 
       0.0000097197   0.0000097124   7.2144790458 
       0.0000097704   0.0000098972   7.2144792173 
       0.0000098405   0.0000099819   7.2144797549 
       0.0000098167   0.0000100224   7.2144788900 
       0.0000098495   0.0000100224   7.2144788638 
       0.0000098127   0.0000099819   7.2144796884 
       0.0000097890   0.0000098972   7.2144791388 
       0.0000097124   0.0000097124   7.2144789807 
       0.0000100856   0.0000100856   8.6573748780 
       0.0000101314   0.0000102950   8.6573743592 
       0.0000102006   0.0000104311   8.6573755275 
       0.0000101972   0.0000104917   8.6573747993 
       0.0000102179   0.0000104917   8.6573748013 
       0.0000101830   0.0000104311   8.6573755266 
       0.0000101432   0.0000102950   8.6573743391 
       0.0000100810   0.0000100856   8.6573748203 
       0.0000102950   0.0000101314   8.6573743592 
       0.0000102685   0.0000102685   8.6573753212 
       0.0000103922   0.0000103990   8.6573748603 
       0.0000103062   0.0000104694   8.6573745496 
       0.0000103958   0.0000104694   8.6573745773 
       0.0000103163   0.0000103990   8.6573749209 
       0.0000103192   0.0000102685   8.6573753610 
       0.0000102774   0.0000101314   8.6573743309 
       0.0000104311   0.0000102006   8.6573755275 
       0.0000103990   0.0000103922   8.6573748603 
       0.0000105358   0.0000105358   8.6573745339 
       0.0000104107   0.0000105950   8.6573744395 
       0.0000105539   0.0000105950   8.6573744430 
       0.0000104144   0.0000105358   8.6573745387 
       0.0000104800   0.0000103922   8.6573748517 
       0.0000104032   0.0000102005   8.6573754920 
       0.0000104917   0.0000101972   8.6573747993 
       0.0000104694   0.0000103062   8.6573745496 
       0.0000105950   0.0000104107   8.6573744395 
       0.0000104652   0.0000104652   8.6573745674 
       0.0000106378   0.0000104652   8.6573745313 
       0.0000104488   0.0000104107   8.6573743519 
       0.0000105668   0.0000103062   8.6573744569 
       0.0000104580   0.0000101971   8.6573747442 
       0.0000104917   0.0000102179   8.6573748013 
       0.0000104694   0.0000103958   8.6573745773 
       0.0000105950   0.0000105539   8.6573744430 
       0.0000104652   0.0000106378   8.6573745313 
       0.0000106378   0.0000106378   8.6573744951 
       0.0000104488   0.0000105539   8.6573743553 
       0.0000105668   0.0000103958   8.6573744846 
       0.0000104580   0.0000102179   8.6573747461 
       0.0000104311   0.0000101830   8.6573755266 
       0.0000103990   0.0000103163   8.6573749209 
       0.0000105358   0.0000104144   8.6573745387 
       0.0000104107   0.0000104488   8.6573743519 
       0.0000105539   0.0000104488   8.6573743553 
       0.0000104144   0.0000104144   8.6573745434 
       0.0000104800   0.0000103163   8.6573749123 
       0.0000104032   0.0000101830   8.6573754912 
       0.0000102950   0.0000101432   8.6573743391 
       0.0000102685   0.0000103192   8.6573753610 
       0.0000103922   0.0000104800   8.6573748517 
       0.0000103062   0.0000105668   8.6573744569 
       0.0000103958   0.0000105668   8.6573744846 
       0.0000103163   0.0000104800   8.6573749123 
       0.0000103192   0.0000103192   8.6573754008 
       0.0000102774   0.0000101432   8.6573743107 
       0.0000100856   0.0000100810   8.6573748203 
       0.0000101314   0.0000102774   8.6573743309 
       0.0000102005   0.0000104032   8.6573754920 
       0.0000101971   0.0000104580   8.6573747442 
       0.0000102179   0.0000104580   8.6573747461 
       0.0000101830   0.0000104032   8.6573754912 
       0.0000101432   0.0000102774   8.6573743107 
       0.0000100810   0.0000100810   8.6573747626 
       0.0000098071   0.0000098071  10.1002687077 
       0.0000100003   0.0000102472  10.1002688254 
       0.0000100774   0.0000103780  10.1002704181 
       0.0000101005   0.0000104494  10.1002688240 
       0.0000101052   0.0000104494  10.1002688092 
       0.0000100734   0.0000103780  10.1002703767 
       0.0000100030   0.0000102472  10.1002687680 
       0.0000098058   0.0000098070  10.1002686262 
       0.0000102472   0.0000100003  10.1002688254 
       0.0000102963   0.0000102963  10.1002698258 
       0.0000103646   0.0000104443  10.1002690412 
       0.0000103630   0.0000105132  10.1002686801 
       0.0000103838   0.0000105132  10.1002686598 
       0.0000103469   0.0000104443  10.1002689884 
       0.0000103081   0.0000102963  10.1002697590 
       0.0000102426   0.0000100003  10.1002687660 
       0.0000103780   0.0000100774  10.1002704181 
       0.0000104443   0.0000103646  10.1002690412 
       0.0000105084   0.0000105084  10.1002691053 
       0.0000104937   0.0000105760  10.1002688353 
       0.0000105269   0.0000105760  10.1002688239 
       0.0000104803   0.0000105084  10.1002690736 
       0.0000104632   0.0000103646  10.1002689973 
       0.0000103706   0.0000100774  10.1002703693 
       0.0000104494   0.0000101005  10.1002688240 
       0.0000105132   0.0000103630  10.1002686801 
       0.0000105760   0.0000104937  10.1002688353 
       0.0000105597   0.0000105597  10.1002684496 
       0.0000105997   0.0000105597  10.1002684512 
       0.0000105421   0.0000104937  10.1002688348 
       0.0000105359   0.0000103630  10.1002686658 
       0.0000104405   0.0000101005  10.1002687870 
       0.0000104494   0.0000101052  10.1002688092 
       0.0000105132   0.0000103838  10.1002686598 
       0.0000105760   0.0000105269  10.1002688239 
       0.0000105597   0.0000105997  10.1002684512 
       0.0000105997   0.0000105997  10.1002684529 
       0.0000105421   0.0000105269  10.1002688233 
       0.0000105359   0.0000103838  10.1002686455 
       0.0000104405   0.0000101052  10.1002687722 
       0.0000103780   0.0000100734  10.1002703767 
       0.0000104443   0.0000103469  10.1002689884 
       0.0000105084   0.0000104803  10.1002690736 
       0.0000104937   0.0000105421  10.1002688348 
       0.0000105269   0.0000105421  10.1002688233 
       0.0000104803   0.0000104803  10.1002690418 
       0.0000104632   0.0000103469  10.1002689444 
       0.0000103706   0.0000100734  10.1002703279 
       0.0000102472   0.0000100030  10.1002687680 
       0.0000102963   0.0000103081  10.1002697590 
       0.0000103646   0.0000104632  10.1002689973 
       0.0000103630   0.0000105359  10.1002686658 
       0.0000103838   0.0000105359  10.1002686455 
       0.0000103469   0.0000104632  10.1002689444 
       0.0000103081   0.0000103081  10.1002696922 
       0.0000102426   0.0000100030  10.1002687085 
       0.0000098070   0.0000098058  10.1002686262 
       0.0000100003   0.0000102426  10.1002687660 
       0.0000100774   0.0000103706  10.1002703693 
       0.0000101005   0.0000104405  10.1002687870 
       0.0000101052   0.0000104405  10.1002687722 
       0.0000100734   0.0000103706  10.1002703279 
       0.0000100030   0.0000102426  10.1002687085 
       0.0000098058   0.0000098058  10.1002685447 
      </DataArray>
    </PointData>
    <Points>
      <DataArray type="Float32" NumberOfComponents="3" format="ascii">
       0.0000000000   0.0000000000   0.0000000000 
       0.1428571492   0.0000000000   0.0000000000 
       0.2857142985   0.0000000000   0.0000000000 
       0.4285714626   0.0000000000   0.0000000000 
       0.5714285970   0.0000000000   0.0000000000 
       0.7142857313   0.0000000000   0.0000000000 
       0.8571429253   0.0000000000   0.0000000000 
       1.0000000000   0.0000000000   0.0000000000 
       0.0000000000   0.1428571492   0.0000000000 
       0.1428571492   0.1428571492   0.0000000000 
       0.2857142985   0.1428571492   0.0000000000 
       0.4285714626   0.1428571492   0.0000000000 
       0.5714285970   0.1428571492   0.0000000000 
       0.7142857313   0.1428571492   0.0000000000 
       0.8571429253   0.1428571492   0.0000000000 
       1.0000000000   0.1428571492   0.0000000000 
       0.0000000000   0.2857142985   0.0000000000 
       0.1428571492   0.2857142985   0.0000000000 
       0.2857142985   0.2857142985   0.0000000000 
       0.4285714626   0.2857142985   0.0000000000 
       0.5714285970   0.2857142985   0.0000000000 
       0.7142857313   0.2857142985   0.0000000000 
       0.8571429253   0.2857142985   0.0000000000 
       1.0000000000   0.2857142985   0.0000000000 
       0.0000000000   0.4285714626   0.0000000000 
       0.1428571492   0.4285714626   0.0000000000 
       0.2857142985   0.4285714626   0.0000000000 
       0.4285714626   0.4285714626   0.0000000000 
       0.5714285970   0.4285714626   0.0000000000 
       0.7142857313   0.4285714626   0.0000000000 
       0.8571429253   0.4285714626   0.0000000000 
       1.0000000000   0.4285714626   0.0000000000 
       0.0000000000   0.5714285970   0.0000000000 
       0.1428571492   0.5714285970   0.0000000000 
       0.2857142985   0.5714285970   0.0000000000 
       0.4285714626   0.5714285970   0.0000000000 
       0.5714285970   0.5714285970   0.0000000000 
       0.7142857313   0.5714285970   0.0000000000 
       0.8571429253   0.5714285970   0.0000000000 
       1.0000000000   0.5714285970   0.0000000000 
       0.0000000000   0.7142857313   0.0000000000 
       0.1428571492   0.7142857313   0.0000000000 
       0.2857142985   0.7142857313   0.0000000000 
       0.4285714626   0.7142857313   0.0000000000 
       0.5714285970   0.7142857313   0.0000000000 
       0.7142857313   0.7142857313   0.0000000000 
       0.8571429253   0.7142857313   0.0000000000 
       1.0000000000   0.7142857313   0.0000000000 
       0.0000000000   0.8571429253   0.0000000000 
       0.1428571492   0.8571429253   0.0000000000 
       0.2857142985   0.8571429253   0.0000000000 
       0.4285714626   0.8571429253   0.0000000000 
       0.5714285970   0.8571429253   0.0000000000 
       0.7142857313   0.8571429253   0.0000000000 
       0.8571429253   0.8571429253   0.0000000000 
       1.0000000000   0.8571429253   0.0000000000 
       0.0000000000   1.0000000000   0.0000000000 
       0.1428571492   1.0000000000   0.0000000000 
       0.2857142985   1.0000000000   0.0000000000 
       0.4285714626   1.0000000000   0.0000000000 
       0.5714285970   1.0000000000   0.0000000000 
       0.7142857313   1.0000000000   0.0000000000 
       0.8571429253   1.0000000000   0.0000000000 
       1.0000000000   1.0000000000   0.0000000000 
       0.0000000000   0.0000000000   0.1428571492 
       0.1428571492   0.0000000000   0.1428571492 
       0.2857142985   0.0000000000   0.1428571492 
       0.4285714626   0.0000000000   0.1428571492 