<VTKFile type="UnstructuredGrid" version="0.1" byte_order="LittleEndian">
  <UnstructuredGrid>
    <Piece NumberOfPoints="512" NumberOfCells="343">
     <PointData Scalars="scalars">
      <DataArray type="Float32" Name="Displacement" NumberOfComponents="3" format="ascii">
       0.0000031119   0.0000031119   0.0000031119 
       0.0000062239   0.0000062239   0.0000062239 
       0.0000062239   0.0000062239   0.0000062239 
       0.0000062239   0.0000062239   0.0000062239 
       0.0000062239   0.0000062239   0.0000062239 
       0.0000062239   0.0000062239   0.0000062239 
       0.0000062239   0.0000062239   0.0000062239 
       0.0000031119   0.0000031119   0.0000031119 
       0.0000062239   0.0000062239   0.0000062239 
       0.0000124478   0.0000124478   0.0000124478 
       0.0000124478   0.0000124478   0.0000124478 
       0.0000124478   0.0000124478   0.0000124478 
       0.0000124478   0.0000124478   0.0000124478 
       0.0000124478   0.0000124478   0.0000124478 
       0.0000124478   0.0000124478   0.0000124478 
       0.0000062239   0.0000062239   0.0000062239 
       0.0000062239   0.0000062239   0.0000062239 
       0.0000124478   0.0000124478   0.0000124478 
       0.0000124478   0.0000124478   0.0000124478 
       0.0000124478   0.0000124478   0.0000124478 
       0.0000124478   0.0000124478   0.0000124478 
       0.0000124478   0.0000124478   0.0000124478 
       0.0000124478   0.0000124478   0.0000124478 
       0.0000062239   0.0000062239   0.0000062239 
       0.0000062239   0.0000062239   0.0000062239 
       0.0000124478   0.0000124478   0.0000124478 
       0.0000124478   0.0000124478   0.0000124478 
       0.0000124478   0.0000124478   0.0000124478 
       0.0000124478   0.0000124478   0.0000124478 
       0.0000124478   0.0000124478   0.0000124478 
       0.0000124478   0.0000124478   0.0000124478 
       0.0000062239   0.0000062239   0.0000062239 
       0.0000062239   0.0000062239   0.0000062239 
       0.0000124478   0.0000124478   0.0000124478 
       0.0000124478   0.0000124478   0.0000124478 
       0.0000124478   0.0000124478   0.0000124478 
       0.0000124478   0.0000124478   0.0000124478 
       0.0000124478   0.0000124478   0.0000124478 
       0.0000124478   0.0000124478   0.0000124478 
       0.0000062239   0.0000062239   0.0000062239 
       0.0000062239   0.0000062239   0.0000062239 
       0.0000124478   0.0000124478   0.0000124478 
       0.0000124478   0.0000124478   0.0000124478 
       0.0000124478   0.0000124478   0.0000124478 
       0.0000124478   0.0000124478   0.0000124478 
       0.0000124478   0.0000124478   0.0000124478 
       0.0000124478   0.0000124478   0.0000124478 
       0.0000062239   0.0000062239   0.0000062239 
       0.0000062239   0.0000062239   0.0000062239 
       0.0000124478   0.0000124478   0.0000124478 
       0.0000124478   0.0000124478   0.0000124478 
       0.0000124478   0.0000124478   0.0000124478 
       0.0000124478   0.0000124478   0.0000124478 
       0.0000124478   0.0000124478   0.0000124478 
       0.0000124478   0.0000124478   0.0000124478 
       0.0000062239   0.0000062239   0.0000062239 
       0.0000031119   0.0000031119   0.0000031119 
       0.0000062239   0.0000062239   0.0000062239 
       0.0000062239   0.0000062239   0.0000062239 
       0.0000062239   0.0000062239   0.0000062239 
       0.0000062239   0.0000062239   0.0000062239 
       0.0000062239   0.0000062239   0.0000062239 
       0.0000062239   0.0000062239   0.0000062239 
       0.0000031119   0.0000031119   0.0000031119 
       0.0000114841   0.0000114863   1.4406926382 
       0.0000111867   0.0000121988   1.4407092895 
       0.0000115893   0.0000129821   1.4406516348 
       0.0000117371   0.0000131496   1.4406772104 
       0.0000117373   0.0000131486   1.4408255054 
       0.0000115892   0.0000129792   1.4409296487 
       0.0000111868   0.0000121944   1.4410417712 
       0.0000114841   0.0000114815   1.4410853340 
       0.0000121973   0.0000111897   1.4404928393 
       0.0000112747   0.0000112775   1.4404051326 
       0.0000118069   0.0000121131   1.4405204219 
       0.0000119760   0.0000122749   1.4405558007 
       0.0000119766   0.0000122739   1.4405095704 
       0.0000118063   0.0000121101   1.4407320872 
       0.0000112752   0.0000112728   1.4408805597 
       0.0000121972   0.0000111843   1.4409429568 
       0.0000129815   0.0000115940   1.4396290836 
       0.0000121115   0.0000118113   1.4398214116 
       0.0000126879   0.0000126903   1.4388140167 
       0.0000128742   0.0000128489   1.4387243349 
       0.0000128758   0.0000128464   1.4397387409 
       0.0000126872   0.0000126831   1.4399765551 
       0.0000121122   0.0000118027   1.4403873249 
       0.0000129815   0.0000115863   1.4405380153 
       0.0000131469   0.0000117441   1.4388402863 
       0.0000122711   0.0000119844   1.4369060957 
       0.0000128497   0.0000128809   1.4401908961 
       0.0000130381   0.0000130351   1.4396075134 
       0.0000130372   0.0000130320   1.4364741241 
       0.0000128475   0.0000128703   1.4384823122 
       0.0000122731   0.0000119734   1.4395687736 
       0.0000131478   0.0000117343   1.4399522228 
       0.0000131458   0.0000117473   1.4372368778 
       0.0000122685   0.0000120013   1.4384998753 
       0.0000128282   0.0000129230   1.4075725055 
       0.0000130133   0.0000130637   1.4091278870 
       0.0000130275   0.0000130341   1.4308382285 
       0.0000128396   0.0000128664   1.4357607102 
       0.0000122665   0.0000119715   1.4388458820 
       0.0000131419   0.0000117334   1.4391799266 
       0.0000130056   0.0000116029   1.4435989944 
       0.0000121452   0.0000118102   1.4264470577 
       0.0000127740   0.0000128334   1.5081048438 
       0.0000129573   0.0000129757   1.4258305696 
       0.0000128712   0.0000128161   1.4060546806 
       0.0000126719   0.0000126799   1.4378333165 
       0.0000120974   0.0000118022   1.4372899321 
       0.0000129677   0.0000115857   1.4388254174 
       0.0000122634   0.0000112036   1.4440186656 
       0.0000113747   0.0000113218   1.4261794429 
       0.0000119926   0.0000123960   1.6578868924 
       0.0000122221   0.0000125351   1.5620830809 
       0.0000120023   0.0000122396   1.3860947501 
       0.0000117988   0.0000121044   1.4404101742 
       0.0000112617   0.0000112689   1.4360616019 
       0.0000121831   0.0000111828   1.4386600102 
       0.0000115526   0.0000114964   1.4371722096 
       0.0000112584   0.0000122311   1.4616575396 
       0.0000116247   0.0000130762   1.4097384752 
       0.0000117223   0.0000131848   1.3772842041 
       0.0000117593   0.0000131339   1.4364637169 
       0.0000115873   0.0000129675   1.4302546098 
       0.0000111760   0.0000121927   1.4378756285 
       0.0000114716   0.0000114798   1.4377648371 
       0.0000128243   0.0000128266   2.8815220264 
       0.0000129984   0.0000130976   2.8814804488 
       0.0000130079   0.0000133859   2.8815366245 
       0.0000130510   0.0000135785   2.8816170036 
       0.0000130512   0.0000135775   2.8817037167 
       0.0000130077   0.0000133826   2.8819714194 
       0.0000129986   0.0000130918   2.8821690008 
       0.0000128243   0.0000128199   2.8822569423 
       0.0000130966   0.0000130017   2.8810464511 
       0.0000133277   0.0000133303   2.8810651532 
       0.0000132846   0.0000136161   2.8808334620 
       0.0000133246   0.0000138100   2.8808266981 
       0.0000133262   0.0000138096   2.8812729964 
       0.0000132835   0.0000136134   2.8815411013 
       0.0000133286   0.0000133245   2.8818700814 
       0.0000130965   0.0000129943   2.8819797397 
       0.0000133870   0.0000130129   2.8797663802 
       0.0000136152   0.0000132872   2.8792808853 
       0.0000135646   0.0000135605   2.8796741176 
       0.0000136037   0.0000137529   2.8798283742 
       0.0000136049   0.0000137524   2.8791358653 
       0.0000135629   0.0000135555   2.8802832083 
       0.0000136171   0.0000132774   2.8808850853 
       0.0000133867   0.0000130026   2.8812178891 
       0.0000135756   0.0000130595   2.8768526696 
       0.0000138087   0.0000133297   2.8771425355 
       0.0000137578   0.0000135915   2.8712101040 
       0.0000137953   0.0000137739   2.8688488768 
       0.0000138036   0.0000137839   2.8762935386 
       0.0000137577   0.0000135970   2.8768512641 
       0.0000138090   0.0000133210   2.8794997944 
       0.0000135769   0.0000130461   2.8800097506 
       0.0000135608   0.0000130663   2.8794609958 
       0.0000137815   0.0000133509   2.8658124084 
       0.0000137531   0.0000136052   2.8750569967 
       0.0000138053   0.0000137490   2.8823014772 
       0.0000137708   0.0000137749   2.8533151310 
       0.0000137381   0.0000135939   2.8749006443 
       0.0000137962   0.0000133163   2.8774276649 
       0.0000135662   0.0000130450   2.8788040611 
       0.0000133842   0.0000130133   2.8685661047 
       0.0000135914   0.0000133058   2.9041448138 
       0.0000133045   0.0000134311   2.7133973892 
       0.0000132897   0.0000132129   2.5729319945 
       0.0000134847   0.0000137381   2.8752050449 
       0.0000135130   0.0000135483   2.8662675048 
       0.0000135864   0.0000132774   2.8769193801 
       0.0000133610   0.0000130017   2.8772232287 
       0.0000131507   0.0000130310   2.8852944632 
       0.0000134136   0.0000133566   2.8669497904 
       0.0000135584   0.0000141334   3.0863837422 
       0.0000130052   0.0000131547   2.5537434857 
       0.0000132255   0.0000137995   2.8869847560 
       0.0000132387   0.0000135935   2.8616785081 
       0.0000132968   0.0000133197   2.8765345229 
       0.0000130681   0.0000129912   2.8761530037 
       0.0000128910   0.0000128324   2.8772437794 
       0.0000130692   0.0000131398   2.9060861419 
       0.0000129321   0.0000134347   2.8459753073 
       0.0000131916   0.0000134324   2.9537672849 
       0.0000130260   0.0000135066   2.8318520373 
       0.0000129780   0.0000133774   2.8718944516 
       0.0000129710   0.0000130865   2.8739925373 
       0.0000127978   0.0000128181   2.8767200575 
       0.0000139066   0.0000139074   4.3225416925 
       0.0000139896   0.0000142017   4.3225385915 
       0.0000140500   0.0000143886   4.3224875726 
       0.0000140681   0.0000145020   4.3225661591 
       0.0000140686   0.0000145014   4.3228663260 
       0.0000140497   0.0000143861   4.3231929614 
       0.0000139899   0.0000141967   4.3234925460 
       0.0000139065   0.0000139014   4.3236058293 
       0.0000142023   0.0000139912   4.3219405456 
       0.0000142033   0.0000142047   4.3218516377 
       0.0000142604   0.0000144016   4.3218559982 
       0.0000142720   0.0000145128   4.3219465215 
       0.0000142737   0.0000145128   4.3221229068 
       0.0000142590   0.0000144000   4.3226329257 
       0.0000142045   0.0000142000   4.3230561158 
       0.0000142021   0.0000139849   4.3232266559 
       0.0000143910   0.0000140521   4.3199870777 
       0.0000144018   0.0000142591   4.3198144948 
       0.0000144546   0.0000144471   4.3188653295 
       0.0000144614   0.0000145547   4.3185973791 
       0.0000144646   0.0000145549   4.3197757897 
       0.0000144526   0.0000144444   4.3207446617 
       0.0000144035   0.0000142518   4.3217296440 
       0.0000143907   0.0000140438   4.3221260182 
       0.0000145005   0.0000140727   4.3170393886 
       0.0000145088   0.0000142729   4.3152920721 
       0.0000145638   0.0000144504   4.3146173580 
       0.0000145708   0.0000145526   4.3142151580 
       0.0000145724   0.0000145604   4.3135420257 
       0.0000145606   0.0000144569   4.3169719679 
       0.0000145121   0.0000142683   4.3196334604 
       0.0000145014   0.0000140628   4.3204878845 
       0.0000144872   0.0000140764   4.3156298992 
       0.0000144943   0.0000142812   4.3098875929 
       0.0000145360   0.0000144564   4.2901871441 
       0.0000145392   0.0000145439   4.2840595282 
       0.0000145526   0.0000145506   4.2989849918 
       0.0000145454   0.0000144482   4.3117430446 
       0.0000145004   0.0000142629   4.3173551253 
       0.0000144911   0.0000140611   4.3185476932 
       0.0000143712   0.0000140599   4.3193753575 
       0.0000143718   0.0000142550   4.3119403409 
       0.0000144362   0.0000144274   4.2583373503 
       0.0000144450   0.0000145330   4.2019815164 
       0.0000144087   0.0000145231   4.2769415166 
       0.0000144136   0.0000144426   4.3103320468 
       0.0000143745   0.0000142527   4.3145666601 
       0.0000143651   0.0000140431   4.3171201702 
       0.0000142069   0.0000139993   4.3163067940 
       0.0000142054   0.0000142336   4.3308802400 
       0.0000141705   0.0000143692   4.3140352764 
       0.0000142983   0.0000145060   4.2259567117 
       0.0000142214   0.0000144586   4.2741148418 
       0.0000142188   0.0000143868   4.3087128826 
       0.0000141715   0.0000141930   4.3129498127 
       0.0000141718   0.0000139820   4.3160713397 
       0.0000139210   0.0000139195   4.3226480546 
       0.0000139976   0.0000142086   4.3271598467 
       0.0000140723   0.0000143740   4.3306841574 
       0.0000140221   0.0000144302   4.2839142782 
       0.0000140397   0.0000144621   4.2886839807 
       0.0000140170   0.0000143733   4.3042169111 
       0.0000139590   0.0000141935   4.3134799636 
       0.0000138769   0.0000138988   4.3152184738 
       0.0000145363   0.0000145357   5.7639017018 
       0.0000146383   0.0000148078   5.7638817572 
       0.0000146872   0.0000149645   5.7638833756 
       0.0000147107   0.0000150519   5.7639990099 
       0.0000147111   0.0000150514   5.7642845905 
       0.0000146868   0.0000149625   5.7647090159 
       0.0000146386   0.0000148041   5.7650788106 
       0.0000145363   0.0000145314   5.7652192434 
       0.0000148094   0.0000146383   5.7631596360 
       0.0000148548   0.0000148554   5.7630871400 
       0.0000148869   0.0000150197   5.7629504629 
       0.0000149057   0.0000151061   5.7630229311 
       0.0000149076   0.0000151058   5.7634350112 
       0.0000148854   0.0000150182   5.7640208260 
       0.0000148559   0.0000148520   5.7645436272 
       0.0000148091   0.0000146339   5.7647540642 
       0.0000149667   0.0000146866   5.7608826750 
       0.0000150187   0.0000148836   5.7605644944 
       0.0000150462   0.0000150397   5.7600338431 
       0.0000150609   0.0000151244   5.7598871022 
       0.0000150638   0.0000151237   5.7605424627 
       0.0000150438   0.0000150370   5.7617894859 
       0.0000150206   0.0000148788   5.7629392950 
       0.0000149664   0.0000146813   5.7633965564 
       0.0000150516   0.0000147115   5.7574390907 
       0.0000151019   0.0000149063   5.7559430068 
       0.0000151296   0.0000150596   5.7532664671 
       0.0000151434   0.0000151447   5.7524185395 
       0.0000151475   0.0000151454   5.7540723161 
       0.0000151275   0.0000150597   5.7575890658 
       0.0000151045   0.0000149032   5.7604259723 
       0.0000150516   0.0000147058   5.7613674749 
       0.0000150459   0.0000147120   5.7552908885 
       0.0000150960   0.0000149051   5.7500541233 
       0.0000151250   0.0000150569   5.7370688150 
       0.0000151389   0.0000151405   5.7309780696 
       0.0000151402   0.0000151352   5.7409641238 
       0.0000151206   0.0000150504   5.7520586786 
       0.0000150977   0.0000148974   5.7575408601 
       0.0000150450   0.0000147041   5.7590635870 
       0.0000149535   0.0000146886   5.7565589562 
       0.0000150072   0.0000148842   5.7497308916 
       0.0000150297   0.0000150335   5.7243118284 
       0.0000150435   0.0000151191   5.7045001137 
       0.0000150499   0.0000151231   5.7255142200 
       0.0000150268   0.0000150375   5.7475840028 
       0.0000150032   0.0000148810   5.7550476233 
       0.0000149494   0.0000146809   5.7569192657 
       0.0000147961   0.0000146424   5.7591393378 
       0.0000148384   0.0000148529   5.7579335749 
       0.0000148838   0.0000150201   5.7390473054 
       0.0000148779   0.0000150861   5.7114775510 
       0.0000148913   0.0000150920   5.7240467827 
       0.0000148646   0.0000150055   5.7450423298 
       0.0000148340   0.0000148462   5.7533657945 
       0.0000147874   0.0000146312   5.7554930506 
       0.0000145256   0.0000145390   5.7604501501 
       0.0000146272   0.0000148073   5.7612418569 
       0.0000146663   0.0000149518   5.7504532709 
       0.0000146986   0.0000150468   5.7262125178 
       0.0000146901   0.0000150390   5.7292965811 
       0.0000146653   0.0000149555   5.7442339691 
       0.0000146162   0.0000148016   5.7526730095 
       0.0000145140   0.0000145295   5.7550844995 
       0.0000148710   0.0000148698   7.2056539820 
       0.0000149776   0.0000151531   7.2056263894 
       0.0000150288   0.0000153054   7.2056143040 
       0.0000150518   0.0000153899   7.2057457711 
       0.0000150521   0.0000153893   7.2060916442 
       0.0000150285   0.0000153037   7.2065741103 
       0.0000149778   0.0000151505   7.2069927794 
       0.0000148709   0.0000148668   7.2071590871 
       0.0000151548   0.0000149769   7.2048178173 
       0.0000151936   0.0000151940   7.2047384419 
       0.0000152316   0.0000153560   7.2046173354 
       0.0000152492   0.0000154390   7.2047054012 
       0.0000152508   0.0000154386   7.2051434151 
       0.0000152303   0.0000153545   7.2058019176 
       0.0000151945   0.0000151915   7.2063910471 
       0.0000151545   0.0000149739   7.2066253591 
       0.0000153070   0.0000150272   7.2023373702 
       0.0000153543   0.0000152281   7.2019941341 
       0.0000153871   0.0000153824   7.2013874566 
       0.0000154004   0.0000154644   7.2012647164 
       0.0000154030   0.0000154636   7.2020005508 
       0.0000153851   0.0000153801   7.2033599978 
       0.0000153558   0.0000152249   7.2046031346 
       0.0000153066   0.0000150239   7.2050891726 
       0.0000153902   0.0000150512   7.1987136829 
       0.0000154353   0.0000152502   7.1973413658 
       0.0000154688   0.0000154028   7.1946706233 
       0.0000154814   0.0000154859   7.1936698365 
       0.0000154843   0.0000154855   7.1956276562 
       0.0000154662   0.0000154016   7.1990662885 
       0.0000154369   0.0000152477   7.2018140527 
       0.0000153895   0.0000150479   7.2027896026 
       0.0000153871   0.0000150505   7.1957821347 
       0.0000154324   0.0000152469   7.1921546447 
       0.0000154654   0.0000153968   7.1840634834 
       0.0000154779   0.0000154775   7.1801138960 
       0.0000154810   0.0000154770   7.1854036178 
       0.0000154627   0.0000153939   7.1934908853 
       0.0000154333   0.0000152427   7.1986016099 
       0.0000153859   0.0000150465   7.2001833072 
       0.0000152992   0.0000150278   7.1956940340 
       0.0000153461   0.0000152300   7.1906048302 
       0.0000153790   0.0000153857   7.1770911982 
       0.0000153921   0.0000154679   7.1680927007 
       0.0000153931   0.0000154676   7.1757404295 
       0.0000153758   0.0000153841   7.1885298575 
       0.0000153460   0.0000152275   7.1957857141 
       0.0000152968   0.0000150239   7.1978247708 
       0.0000151442   0.0000149761   7.1977974233 
       0.0000151840   0.0000151920   7.1940101676 
       0.0000152180   0.0000153496   7.1811298123 
       0.0000152396   0.0000154326   7.1688833959 
       0.0000152372   0.0000154301   7.1734924782 
       0.0000152175   0.0000153478   7.1859681462 
       0.0000151811   0.0000151871   7.1938976250 
       0.0000151410   0.0000149720   7.1962284778 
       0.0000148599   0.0000148698   7.1989592069 
       0.0000149661   0.0000151526   7.1963032178 
       0.0000150183   0.0000153050   7.1855383410 
       0.0000150381   0.0000153859   7.1730169490 
       0.0000150391   0.0000153871   7.1748050075 
       0.0000150145   0.0000153018   7.1854304676 
       0.0000149634   0.0000151493   7.1932152616 
       0.0000148564   0.0000148655   7.1956803100 
       0.0000149460   0.0000149448   8.6478404391 
       0.0000150313   0.0000152197   8.6478106181 
       0.0000150930   0.0000154010   8.6478000790 
       0.0000151222   0.0000154881   8.6479416258 
       0.0000151224   0.0000154876   8.6483155952 
       0.0000150928   0.0000153996   8.6488338933 
       0.0000150314   0.0000152176   8.6492804152 
       0.0000149460   0.0000149426   8.6494596144 
       0.0000152210   0.0000150304   8.6469549824 
       0.0000152589   0.0000152589   8.6468742392 
       0.0000153026   0.0000154443   8.6467518051 
       0.0000153257   0.0000155308   8.6468509390 
       0.0000153268   0.0000155304   8.6473118355 
       0.0000153017   0.0000154431   8.6480134035 
       0.0000152595   0.0000152570   8.6486405989 
       0.0000152208   0.0000150282   8.6488873257 
       0.0000154020   0.0000150914   8.6443824470 
       0.0000154431   0.0000152999   8.6440249444 
       0.0000154806   0.0000154775   8.6433761492 
       0.0000154989   0.0000155635   8.6432484383 
       0.0000155006   0.0000155629   8.6440553856 
       0.0000154792   0.0000154759   8.6454745947 
       0.0000154440   0.0000152977   8.6467479786 
       0.0000154017   0.0000150891   8.6472478473 
       0.0000154881   0.0000151213   8.6406718689 
       0.0000155282   0.0000153263   8.6394970807 
       0.0000155660   0.0000155010   8.6371923378 
       0.0000155837   0.0000155875   8.6362858354 
       0.0000155856   0.0000155871   8.6380187012 
       0.0000155643   0.0000154998   8.6411866926 
       0.0000155291   0.0000153243   8.6438179602 
       0.0000154876   0.0000151190   8.6447875929 
       0.0000154860   0.0000151207   8.6374270686 
       0.0000155260   0.0000153237   8.6348120743 
       0.0000155638   0.0000154967   8.6293047263 
       0.0000155815   0.0000155821   8.6265557746 
       0.0000155832   0.0000155814   8.6297627927 
       0.0000155620   0.0000154949   8.6358212160 
       0.0000155267   0.0000153211   8.6404249116 
       0.0000154852   0.0000151181   8.6420020600 
       0.0000153962   0.0000150916   8.6365091304 
       0.0000154373   0.0000153017   8.6327879323 
       0.0000154745   0.0000154801   8.6242510075 
       0.0000154928   0.0000155669   8.6189141407 
       0.0000154942   0.0000155665   8.6226731871 
       0.0000154727   0.0000154790   8.6310945744 
       0.0000154374   0.0000152996   8.6374069978 
       0.0000153951   0.0000150891   8.6395017897 
       0.0000152129   0.0000150297   8.6377057453 
       0.0000152504   0.0000152569   8.6340723268 
       0.0000152945   0.0000154414   8.6248560818 
       0.0000153166   0.0000155264   8.6176271756 
       0.0000153180   0.0000155261   8.6200252679 
       0.0000152925   0.0000154392   8.6285134812 
       0.0000152502   0.0000152544   8.6354284872 
       0.0000152115   0.0000150270   8.6377935046 
       0.0000149371   0.0000149444   8.6385803899 
       0.0000150224   0.0000152196   8.6352767740 
       0.0000150835   0.0000154005   8.6264318343 
       0.0000151130   0.0000154880   8.6186645082 
       0.0000151126   0.0000154871   8.6199836260 
       0.0000150828   0.0000153992   8.6278643753 
       0.0000150213   0.0000152172   8.6347527130 
       0.0000149358   0.0000149418   8.6371939302 
       0.0000144763   0.0000144752  10.0904923761 
       0.0000147220   0.0000150256  10.0904661974 
       0.0000148125   0.0000151964  10.0904562856 
       0.0000148489   0.0000152896  10.0906014399 
       0.0000148490   0.0000152892  10.0909830616 
       0.0000148125   0.0000151952  10.0915124468 
       0.0000147220   0.0000150239  10.0919704996 
       0.0000144763   0.0000144733  10.0921488109 
       0.0000150267   0.0000147209  10.0895971819 
       0.0000151122   0.0000151115  10.0895135800 
       0.0000151744   0.0000153060  10.0893884184 
       0.0000152036   0.0000153944  10.0894902315 
       0.0000152039   0.0000153940  10.0899616430 
       0.0000151742   0.0000153048  10.0906782658 
       0.0000151124   0.0000151098  10.0913183596 
       0.0000150266   0.0000147190  10.0915697467 
       0.0000151969   0.0000148112  10.0869969563 
       0.0000153060   0.0000151730  10.0866367801 
       0.0000153580   0.0000153570  10.0859811854 
       0.0000153817   0.0000154465  10.0858543869 
       0.0000153820   0.0000154460  10.0866775512 
       0.0000153577   0.0000153557  10.0881114319 
       0.0000153062   0.0000151711  10.0893927533 
       0.0000151968   0.0000148093  10.0898941716 
       0.0000152891   0.0000148478  10.0832651219 
       0.0000153933   0.0000152029  10.0821727531 
       0.0000154466   0.0000153818  10.0800320050 
       0.0000154699   0.0000154712  10.0791797497 
       0.0000154703   0.0000154707  10.0807999836 
       0.0000154461   0.0000153805  10.0838395068 
       0.0000153934   0.0000152011  10.0864186354 
       0.0000152889   0.0000148458  10.0873803458 
       0.0000152873   0.0000148475  10.0799402954 
       0.0000153914   0.0000152022  10.0776571439 
       0.0000154447   0.0000153806  10.0729337612 
       0.0000154680   0.0000154697  10.0705504048 
       0.0000154684   0.0000154693  10.0731886183 
       0.0000154441   0.0000153792  10.0785860052 
       0.0000153914   0.0000152002  10.0829727667 
       0.0000152869   0.0000148454  10.0845350888 
       0.0000151918   0.0000148111  10.0787570045 
       0.0000153008   0.0000151732  10.0755035416 
       0.0000153528   0.0000153574  10.0683483377 
       0.0000153763   0.0000154469  10.0639423980 
       0.0000153765   0.0000154465  10.0668060096 
       0.0000153521   0.0000153561  10.0739861293 
       0.0000153006   0.0000151713  10.0798989154 
       0.0000151912   0.0000148090  10.0819818872 
       0.0000150193   0.0000147205  10.0796011195 
       0.0000151050   0.0000151108  10.0761838453 
       0.0000151667   0.0000153048  10.0681230782 
       0.0000151962   0.0000153930  10.0621610006 
       0.0000151959   0.0000153924  10.0640587298 
       0.0000151663   0.0000153035  10.0714007088 
       0.0000151043   0.0000151087  10.0778935377 
       0.0000150186   0.0000147183  10.0802371802 
       0.0000144685   0.0000144748  10.0803271213 
       0.0000147140   0.0000150253  10.0770314678 
       0.0000148045   0.0000151961  10.0689830963 
       0.0000148405   0.0000152889  10.0624991385 
       0.0000148406   0.0000152885  10.0636939495 
       0.0000148038   0.0000151946  10.0707011003 
       0.0000147134   0.0000150233  10.0772160809 
       0.0000144678   0.0000144727  10.0796235487 
      </DataArray>
    </PointData>
    <Points>
      <DataArray type="Float32" NumberOfComponents="3" format="ascii">
       0.0000000000   0.0000000000   0.0000000000 
       0.1428571492   0.0000000000   0.0000000000 
       0.2857142985   0.0000000000   0.0000000000 
       0.4285714626   0.0000000000   0.0000000000 
       0.5714285970   0.0000000000   0.0000000000 
       0.7142857313   0.0000000000   0.0000000000 
       0.8571429253   0.0000000000   0.0000000000 
       1.0000000000   0.0000000000   0.0000000000 
       0.0000000000   0.1428571492   0.0000000000 
       0.1428571492   0.1428571492   0.0000000000 
       0.2857142985   0.1428571492   0.0000000000 
       0.4285714626   0.1428571492   0.0000000000 
       0.5714285970   0.1428571492   0.0000000000 
       0.7142857313   0.1428571492   0.0000000000 
       0.8571429253   0.1428571492   0.0000000000 
       1.0000000000   0.1428571492   0.0000000000 
       0.0000000000   0.2857142985   0.0000000000 
       0.1428571492   0.2857142985   0.0000000000 
       0.2857142985   0.2857142985   0.0000000000 
       0.4285714626   0.2857142985   0.0000000000 
       0.5714285970   0.2857142985   0.0000000000 
       0.7142857313   0.2857142985   0.0000000000 
       0.8571429253   0.2857142985   0.0000000000 
       1.0000000000   0.2857142985   0.0000000000 
       0.0000000000   0.4285714626   0.0000000000 
       0.1428571492   0.4285714626   0.0000000000 
       0.2857142985   0.4285714626   0.0000000000 
       0.4285714626   0.4285714626   0.0000000000 
       0.5714285970   0.4285714626   0.0000000000 
       0.7142857313   0.4285714626   0.0000000000 
       0.8571429253   0.4285714626   0.0000000000 
       1.0000000000   0.4285714626   0.0000000000 
       0.0000000000   0.5714285970   0.0000000000 
       0.1428571492   0.5714285970   0.0000000000 
       0.2857142985   0.5714285970   0.0000000000 
       0.4285714626   0.5714285970   0.0000000000 
       0.5714285970   0.5714285970   0.0000000000 
       0.7142857313   0.5714285970   0.0000000000 
       0.8571429253   0.5714285970   0.0000000000 
       1.0000000000   0.5714285970   0.0000000000 
       0.0000000000   0.7142857313   0.0000000000 
       0.1428571492   0.7142857313   0.0000000000 
       0.2857142985   0.7142857313   0.0000000000 
       0.4285714626   0.7142857313   0.0000000000 
       0.5714285970   0.7142857313   0.0000000000 
       0.7142857313   0.7142857313   0.0000000000 
       0.8571429253   0.7142857313   0.0000000000 
       1.0000000000   0.7142857313   0.0000000000 
       0.0000000000   0.8571429253   0.0000000000 
       0.1428571492   0.8571429253   0.0000000000 
       0.2857142985   0.8571429253   0.0000000000 
       0.4285714626   0.8571429253   0.0000000000 
       0.5714285970   0.8571429253   0.0000000000 
       0.7142857313   0.8571429253   0.0000000000 
       0.8571429253   0.8571429253   0.0000000000 
       1.0000000000   0.8571429253   0.0000000000 
       0.0000000000   1.0000000000   0.0000000000 
       0.1428571492   1.0000000000   0.0000000000 
       0.2857142985   1.0000000000   0.0000000000 
       0.4285714626   1.0000000000   0.0000000000 
       0.5714285970   1.0000000000   0.0000000000 
       0.7142857313   1.0000000000   0.0000000000 
       0.8571429253   1.0000000000   0.0000000000 
       1.0000000000   1.0000000000   0.0000000000 
       0.0000000000   0.0000000000   0.1428571492 
       0.1428571492   0.0000000000   0.1428571492 
       0.2857142985   0.0000000000   0.1428571492 
       0.4285714626   0.0000000000   0.1428571492 