<VTKFile type="UnstructuredGrid" version="0.1" byte_order="LittleEndian">
  <UnstructuredGrid>
    <Piece NumberOfPoints="1000" NumberOfCells="729">
     <PointData Scalars="scalars">
      <DataArray type="Float32" Name="Displacement" NumberOfComponents="3" format="ascii">
       0.0000000000   0.0000000000   0.0000000000 
       0.0000000000   0.0000000000   0.0000000000 
       0.0000000000   0.0000000000   0.0000000000 
       0.0000000000   0.0000000000   0.0000000000 
       0.0000000000   0.0000000000   0.0000000000 
       0.0000000000   0.0000000000   0.0000000000 
       0.0000000000   0.0000000000   0.0000000000 
       0.0000000000   0.0000000000   0.0000000000 
       0.0000000000   0.0000000000   0.0000000000 
       0.0000000000   0.0000000000   0.0000000000 
       0.0000000000   0.0000000000   0.0000000000 
       0.0000000000   0.0000000000   0.0000000000 
       0.0000000000   0.0000000000   0.0000000000 
       0.0000000000   0.0000000000   0.0000000000 
       0.0000000000   0.0000000000   0.0000000000 
       0.0000000000   0.0000000000   0.0000000000 
       0.0000000000   0.0000000000   0.0000000000 
       0.0000000000   0.0000000000   0.0000000000 
       0.0000000000   0.0000000000   0.0000000000 
       0.0000000000   0.0000000000   0.0000000000 
       0.0000000000   0.0000000000   0.0000000000 
       0.0000000000   0.0000000000   0.0000000000 
       0.0000000000   0.0000000000   0.0000000000 
       0.0000000000   0.0000000000   0.0000000000 
       0.0000000000   0.0000000000   0.0000000000 
       0.0000000000   0.0000000000   0.0000000000 
       0.0000000000   0.0000000000   0.0000000000 
       0.0000000000   0.0000000000   0.0000000000 
       0.0000000000   0.0000000000   0.0000000000 
       0.0000000000   0.0000000000   0.0000000000 
       0.0000000000   0.0000000000   0.0000000000 
       0.0000000000   0.0000000000   0.0000000000 
       0.0000000000   0.0000000000   0.0000000000 
       0.0000000000   0.0000000000   0.0000000000 
       0.0000000000   0.0000000000   0.0000000000 
       0.0000000000   0.0000000000   0.0000000000 
       0.0000000000   0.0000000000   0.0000000000 
       0.0000000000   0.0000000000   0.0000000000 
       0.0000000000   0.0000000000   0.0000000000 
       0.0000000000   0.0000000000   0.0000000000 
       0.0000000000   0.0000000000   0.0000000000 
       0.0000000000   0.0000000000   0.0000000000 
       0.0000000000   0.0000000000   0.0000000000 
       0.0000000000   0.0000000000   0.0000000000 
       0.0000000000   0.0000000000   0.0000000000 
       0.0000000000   0.0000000000   0.0000000000 
       0.0000000000   0.0000000000   0.0000000000 
       0.0000000000   0.0000000000   0.0000000000 
       0.0000000000   0.0000000000   0.0000000000 
       0.0000000000   0.0000000000   0.0000000000 
       0.0000000000   0.0000000000   0.0000000000 
       0.0000000000   0.0000000000   0.0000000000 
       0.0000000000   0.0000000000   0.0000000000 
       0.0000000000   0.0000000000   0.0000000000 
       0.0000000000   0.0000000000   0.0000000000 
       0.0000000000   0.0000000000   0.0000000000 
       0.0000000000   0.0000000000   0.0000000000 
       0.0000000000   0.0000000000   0.0000000000 
       0.0000000000   0.0000000000   0.0000000000 
       0.0000000000   0.0000000000   0.0000000000 
       0.0000000000   0.0000000000   0.0000000000 
       0.0000000000   0.0000000000   0.0000000000 
       0.0000000000   0.0000000000   0.0000000000 
       0.0000000000   0.0000000000   0.0000000000 
       0.0000000000   0.0000000000   0.0000000000 
       0.0000000000   0.0000000000   0.0000000000 
       0.0000000000   0.0000000000   0.0000000000 
       0.0000000000   0.0000000000   0.0000000000 
       0.0000000000   0.0000000000   0.0000000000 
       0.0000000000   0.0000000000   0.0000000000 
       0.0000000000   0.0000000000   0.0000000000 
       0.0000000000   0.0000000000   0.0000000000 
       0.0000000000   0.0000000000   0.0000000000 
       0.0000000000   0.0000000000   0.0000000000 
       0.0000000000   0.0000000000   0.0000000000 
       0.0000000000   0.0000000000   0.0000000000 
       0.0000000000   0.0000000000   0.0000000000 
       0.0000000000   0.0000000000   0.0000000000 
       0.0000000000   0.0000000000   0.0000000000 
       0.0000000000   0.0000000000   0.0000000000 
       0.0000000000   0.0000000000   0.0000000000 
       0.0000000000   0.0000000000   0.0000000000 
       0.0000000000   0.0000000000   0.0000000000 
       0.0000000000   0.0000000000   0.0000000000 
       0.0000000000   0.0000000000   0.0000000000 
       0.0000000000   0.0000000000   0.0000000000 
       0.0000000000   0.0000000000   0.0000000000 
       0.0000000000   0.0000000000   0.0000000000 
       0.0000000000   0.0000000000   0.0000000000 
       0.0000000000   0.0000000000   0.0000000000 
       0.0000000000   0.0000000000   0.0000000000 
       0.0000000000   0.0000000000   0.0000000000 
       0.0000000000   0.0000000000   0.0000000000 
       0.0000000000   0.0000000000   0.0000000000 
       0.0000000000   0.0000000000   0.0000000000 
       0.0000000000   0.0000000000   0.0000000000 
       0.0000000000   0.0000000000   0.0000000000 
       0.0000000000   0.0000000000   0.0000000000 
       0.0000000000   0.0000000000   0.0000000000 
       0.0000000000   0.0000000000   0.0000000000 
       0.0000024421   0.0000024421   1.1222515922 
       0.0000024510   0.0000024656   1.1222519515 
       0.0000024558   0.0000024786   1.1222521440 
       0.0000024590   0.0000024873   1.1222527815 
       0.0000024597   0.0000024914   1.1222527166 
       0.0000024609   0.0000024914   1.1222527098 
       0.0000024580   0.0000024873   1.1222527637 
       0.0000024566   0.0000024786   1.1222521218 
       0.0000024504   0.0000024656   1.1222519329 
       0.0000024423   0.0000024421   1.1222515831 
       0.0000024656   0.0000024510   1.1222519515 
       0.0000024693   0.0000024693   1.1222526887 
       0.0000024722   0.0000024840   1.1222527472 
       0.0000024764   0.0000024942   1.1222529038 
       0.0000024743   0.0000024996   1.1222528508 
       0.0000024794   0.0000024996   1.1222528286 
       0.0000024719   0.0000024942   1.1222528463 
       0.0000024758   0.0000024840   1.1222526775 
       0.0000024670   0.0000024693   1.1222526347 
       0.0000024664   0.0000024510   1.1222519343 
       0.0000024786   0.0000024558   1.1222521440 
       0.0000024840   0.0000024722   1.1222527472 
       0.0000024843   0.0000024843   1.1222527030 
       0.0000024910   0.0000024915   1.1222527479 
       0.0000024854   0.0000024947   1.1222523114 
       0.0000024939   0.0000024947   1.1222522931 
       0.0000024834   0.0000024915   1.1222527004 
       0.0000024904   0.0000024843   1.1222526454 
       0.0000024802   0.0000024722   1.1222527024 
       0.0000024800   0.0000024558   1.1222521293 
       0.0000024873   0.0000024590   1.1222527815 
       0.0000024942   0.0000024764   1.1222529038 
       0.0000024915   0.0000024910   1.1222527479 
       0.0000025016   0.0000025016   1.1222526876 
       0.0000024927   0.0000025073   1.1222524158 
       0.0000025036   0.0000025073   1.1222524173 
       0.0000024918   0.0000025016   1.1222526911 
       0.0000024993   0.0000024910   1.1222527513 
       0.0000024892   0.0000024764   1.1222529047 
       0.0000024890   0.0000024590   1.1222527783 
       0.0000024914   0.0000024597   1.1222527166 
       0.0000024996   0.0000024743   1.1222528508 
       0.0000024947   0.0000024854   1.1222523114 
       0.0000025073   0.0000024927   1.1222524158 
       0.0000024963   0.0000024963   1.1222523586 
       0.0000025084   0.0000024963   1.1222523779 
       0.0000024964   0.0000024927   1.1222524655 
       0.0000025034   0.0000024854   1.1222523700 
       0.0000024941   0.0000024743   1.1222528930 
       0.0000024933   0.0000024597   1.1222527236 
       0.0000024914   0.0000024609   1.1222527098 
       0.0000024996   0.0000024794   1.1222528286 
       0.0000024947   0.0000024939   1.1222522931 
       0.0000025073   0.0000025036   1.1222524173 
       0.0000024963   0.0000025084   1.1222523779 
       0.0000025084   0.0000025084   1.1222523973 
       0.0000024964   0.0000025036   1.1222524669 
       0.0000025034   0.0000024939   1.1222523518 
       0.0000024941   0.0000024794   1.1222528708 
       0.0000024933   0.0000024609   1.1222527168 
       0.0000024873   0.0000024580   1.1222527637 
       0.0000024942   0.0000024719   1.1222528463 
       0.0000024915   0.0000024834   1.1222527004 
       0.0000025016   0.0000024918   1.1222526911 
       0.0000024927   0.0000024964   1.1222524655 
       0.0000025036   0.0000024964   1.1222524669 
       0.0000024918   0.0000024918   1.1222526945 
       0.0000024993   0.0000024834   1.1222527038 
       0.0000024892   0.0000024719   1.1222528472 
       0.0000024890   0.0000024580   1.1222527605 
       0.0000024786   0.0000024566   1.1222521218 
       0.0000024840   0.0000024758   1.1222526775 
       0.0000024843   0.0000024904   1.1222526454 
       0.0000024910   0.0000024993   1.1222527513 
       0.0000024854   0.0000025034   1.1222523700 
       0.0000024939   0.0000025034   1.1222523518 
       0.0000024834   0.0000024993   1.1222527038 
       0.0000024904   0.0000024904   1.1222525878 
       0.0000024802   0.0000024758   1.1222526327 
       0.0000024800   0.0000024566   1.1222521071 
       0.0000024656   0.0000024504   1.1222519329 
       0.0000024693   0.0000024670   1.1222526347 
       0.0000024722   0.0000024802   1.1222527024 
       0.0000024764   0.0000024892   1.1222529047 
       0.0000024743   0.0000024941   1.1222528930 
       0.0000024794   0.0000024941   1.1222528708 
       0.0000024719   0.0000024892   1.1222528472 
       0.0000024758   0.0000024802   1.1222526327 
       0.0000024670   0.0000024670   1.1222525807 
       0.0000024664   0.0000024504   1.1222519157 
       0.0000024421   0.0000024423   1.1222515831 
       0.0000024510   0.0000024664   1.1222519343 
       0.0000024558   0.0000024800   1.1222521293 
       0.0000024590   0.0000024890   1.1222527783 
       0.0000024597   0.0000024933   1.1222527236 
       0.0000024609   0.0000024933   1.1222527168 
       0.0000024580   0.0000024890   1.1222527605 
       0.0000024566   0.0000024800   1.1222521071 
       0.0000024504   0.0000024664   1.1222519157 
       0.0000024423   0.0000024423   1.1222515740 
       0.0000044391   0.0000044391   2.2445038631 
       0.0000044568   0.0000044858   2.2445046917 
       0.0000044663   0.0000045117   2.2445047899 
       0.0000044728   0.0000045290   2.2445052958 
       0.0000044741   0.0000045373   2.2445054710 
       0.0000044763   0.0000045373   2.2445054810 
       0.0000044708   0.0000045290   2.2445053209 
       0.0000044679   0.0000045117   2.2445048181 
       0.0000044558   0.0000044858   2.2445047089 
       0.0000044395   0.0000044391   2.2445038583 
       0.0000044858   0.0000044568   2.2445046917 
       0.0000044933   0.0000044933   2.2445049862 
       0.0000044988   0.0000045226   2.2445051825 
       0.0000045073   0.0000045428   2.2445051266 
       0.0000045033   0.0000045535   2.2445051018 
       0.0000045128   0.0000045535   2.2445051414 
       0.0000044987   0.0000045428   2.2445052284 
       0.0000045056   0.0000045226   2.2445053028 
       0.0000044889   0.0000044933   2.2445050726 
       0.0000044873   0.0000044568   2.2445047054 
       0.0000045117   0.0000044663   2.2445047899 
       0.0000045226   0.0000044988   2.2445051825 
       0.0000045230   0.0000045230   2.2445053168 
       0.0000045362   0.0000045374   2.2445051303 
       0.0000045256   0.0000045438   2.2445047278 
       0.0000045415   0.0000045438   2.2445047606 
       0.0000045219   0.0000045374   2.2445052145 
       0.0000045344   0.0000045230   2.2445054163 
       0.0000045153   0.0000044988   2.2445052536 
       0.0000045142   0.0000044663   2.2445048004 
       0.0000045290   0.0000044728   2.2445052958 
       0.0000045428   0.0000045073   2.2445051266 
       0.0000045374   0.0000045362   2.2445051303 
       0.0000045573   0.0000045573   2.2445052959 
       0.0000045402   0.0000045686   2.2445050295 
       0.0000045608   0.0000045686   2.2445050254 
       0.0000045388   0.0000045573   2.2445052850 
       0.0000045521   0.0000045362   2.2445051159 
       0.0000045333   0.0000045073   2.2445051128 
       0.0000045322   0.0000044728   2.2445052859 
       0.0000045373   0.0000044741   2.2445054710 
       0.0000045535   0.0000045033   2.2445051018 
       0.0000045438   0.0000045256   2.2445047278 
       0.0000045686   0.0000045402   2.2445050295 
       0.0000045473   0.0000045473   2.2445047702 
       0.0000045703   0.0000045473   2.2445047325 
       0.0000045478   0.0000045402   2.2445049318 
       0.0000045603   0.0000045256   2.2445046097 
       0.0000045430   0.0000045033   2.2445050105 
       0.0000045409   0.0000044741   2.2445054422 
       0.0000045373   0.0000044763   2.2445054810 
       0.0000045535   0.0000045128   2.2445051414 
       0.0000045438   0.0000045415   2.2445047606 
       0.0000045686   0.0000045608   2.2445050254 
       0.0000045473   0.0000045703   2.2445047325 
       0.0000045703   0.0000045703   2.2445046948 
       0.0000045478   0.0000045608   2.2445049277 
       0.0000045603   0.0000045415   2.2445046425 
       0.0000045430   0.0000045128   2.2445050501 
       0.0000045409   0.0000044763   2.2445054521 
       0.0000045290   0.0000044708   2.2445053209 
       0.0000045428   0.0000044987   2.2445052284 
       0.0000045374   0.0000045219   2.2445052145 
       0.0000045573   0.0000045388   2.2445052850 
       0.0000045402   0.0000045478   2.2445049318 
       0.0000045608   0.0000045478   2.2445049277 
       0.0000045388   0.0000045388   2.2445052740 
       0.0000045521   0.0000045219   2.2445052002 
       0.0000045333   0.0000044987   2.2445052147 
       0.0000045322   0.0000044708   2.2445053110 
       0.0000045117   0.0000044679   2.2445048181 
       0.0000045226   0.0000045056   2.2445053028 
       0.0000045230   0.0000045344   2.2445054163 
       0.0000045362   0.0000045521   2.2445051159 
       0.0000045256   0.0000045603   2.2445046097 
       0.0000045415   0.0000045603   2.2445046425 
       0.0000045219   0.0000045521   2.2445052002 
       0.0000045344   0.0000045344   2.2445055157 
       0.0000045153   0.0000045056   2.2445053739 
       0.0000045142   0.0000044679   2.2445048287 
       0.0000044858   0.0000044558   2.2445047089 
       0.0000044933   0.0000044889   2.2445050726 
       0.0000044988   0.0000045153   2.2445052536 
       0.0000045073   0.0000045333   2.2445051128 
       0.0000045033   0.0000045430   2.2445050105 
       0.0000045128   0.0000045430   2.2445050501 
       0.0000044987   0.0000045333   2.2445052147 
       0.0000045056   0.0000045153   2.2445053739 
       0.0000044889   0.0000044889   2.2445051589 
       0.0000044873   0.0000044558   2.2445047226 
       0.0000044391   0.0000044395   2.2445038583 
       0.0000044568   0.0000044873   2.2445047054 
       0.0000044663   0.0000045142   2.2445048004 
       0.0000044728   0.0000045322   2.2445052859 
       0.0000044741   0.0000045409   2.2445054422 
       0.0000044763   0.0000045409   2.2445054521 
       0.0000044708   0.0000045322   2.2445053110 
       0.0000044679   0.0000045142   2.2445048287 
       0.0000044558   0.0000044873   2.2445047226 
       0.0000044395   0.0000044395   2.2445038535 
       0.0000060344   0.0000060344   3.3667569711 
       0.0000060606   0.0000061037   3.3667576814 
       0.0000060747   0.0000061422   3.3667573791 
       0.0000060843   0.0000061680   3.3667571556 
       0.0000060864   0.0000061804   3.3667575440 
       0.0000060894   0.0000061804   3.3667575260 
       0.0000060816   0.0000061680   3.3667571084 
       0.0000060768   0.0000061422   3.3667573199 
       0.0000060593   0.0000061037   3.3667576313 
       0.0000060350   0.0000060344   3.3667569455 
       0.0000061037   0.0000060606   3.3667576814 
       0.0000061149   0.0000061149   3.3667577208 
       0.0000061229   0.0000061584   3.3667578823 
       0.0000061355   0.0000061882   3.3667576159 
       0.0000061300   0.0000062041   3.3667574848 
       0.0000061430   0.0000062041   3.3667574262 
       0.0000061238   0.0000061882   3.3667574638 
       0.0000061321   0.0000061584   3.3667576978 
       0.0000061089   0.0000061149   3.3667575773 
       0.0000061057   0.0000060606   3.3667576348 
       0.0000061422   0.0000060747   3.3667573791 
       0.0000061584   0.0000061229   3.3667578823 
       0.0000061590   0.0000061590   3.3667578109 
       0.0000061781   0.0000061808   3.3667575345 
       0.0000061635   0.0000061907   3.3667573357 
       0.0000061851   0.0000061907   3.3667572862 
       0.0000061587   0.0000061808   3.3667574058 
       0.0000061745   0.0000061590   3.3667576547 
       0.0000061485   0.0000061229   3.3667577605 
       0.0000061456   0.0000060747   3.3667573386 
       0.0000061680   0.0000060843   3.3667571556 
       0.0000061882   0.0000061355   3.3667576159 
       0.0000061808   0.0000061781   3.3667575345 
       0.0000062092   0.0000062092   3.3667578086 
       0.0000061857   0.0000062257   3.3667575067 
       0.0000062136   0.0000062257   3.3667575072 
       0.0000061841   0.0000062092   3.3667578093 
       0.0000062008   0.0000061781   3.3667575331 
       0.0000061755   0.0000061355   3.3667576102 
       0.0000061724   0.0000060843   3.3667571445 
       0.0000061804   0.0000060864   3.3667575440 
       0.0000062041   0.0000061300   3.3667574848 
       0.0000061907   0.0000061635   3.3667573357 
       0.0000062257   0.0000061857   3.3667575067 
       0.0000061965   0.0000061965   3.3667569508 
       0.0000062277   0.0000061965   3.3667569969 
       0.0000061976   0.0000061857   3.3667576253 
       0.0000062130   0.0000061635   3.3667574756 
       0.0000061898   0.0000061300   3.3667575848 
       0.0000061853   0.0000060864   3.3667575593 
       0.0000061804   0.0000060894   3.3667575260 
       0.0000062041   0.0000061430   3.3667574262 
       0.0000061907   0.0000061851   3.3667572862 
       0.0000062257   0.0000062136   3.3667575072 
       0.0000061965   0.0000062277   3.3667569969 
       0.0000062277   0.0000062277   3.3667570431 
       0.0000061976   0.0000062136   3.3667576259 
       0.0000062130   0.0000061851   3.3667574260 
       0.0000061898   0.0000061430   3.3667575262 
       0.0000061853   0.0000060894   3.3667575413 
       0.0000061680   0.0000060816   3.3667571084 
       0.0000061882   0.0000061238   3.3667574638 
       0.0000061808   0.0000061587   3.3667574058 
       0.0000062092   0.0000061841   3.3667578093 
       0.0000061857   0.0000061976   3.3667576253 
       0.0000062136   0.0000061976   3.3667576259 
       0.0000061841   0.0000061841   3.3667578100 
       0.0000062008   0.0000061587   3.3667574044 
       0.0000061755   0.0000061238   3.3667574581 
       0.0000061724   0.0000060816   3.3667570972 
       0.0000061422   0.0000060768   3.3667573199 
       0.0000061584   0.0000061321   3.3667576978 
       0.0000061590   0.0000061745   3.3667576547 
       0.0000061781   0.0000062008   3.3667575331 
       0.0000061635   0.0000062130   3.3667574756 
       0.0000061851   0.0000062130   3.3667574260 
       0.0000061587   0.0000062008   3.3667574044 
       0.0000061745   0.0000061745   3.3667574984 
       0.0000061485   0.0000061321   3.3667575759 
       0.0000061456   0.0000060768   3.3667572795 
       0.0000061037   0.0000060593   3.3667576313 
       0.0000061149   0.0000061089   3.3667575773 
       0.0000061229   0.0000061485   3.3667577605 
       0.0000061355   0.0000061755   3.3667576102 
       0.0000061300   0.0000061898   3.3667575848 
       0.0000061430   0.0000061898   3.3667575262 
       0.0000061238   0.0000061755   3.3667574581 
       0.0000061321   0.0000061485   3.3667575759 
       0.0000061089   0.0000061089   3.3667574338 
       0.0000061057   0.0000060593   3.3667575847 
       0.0000060344   0.0000060350   3.3667569455 
       0.0000060606   0.0000061057   3.3667576348 
       0.0000060747   0.0000061456   3.3667573386 
       0.0000060843   0.0000061724   3.3667571445 
       0.0000060864   0.0000061853   3.3667575593 
       0.0000060894   0.0000061853   3.3667575413 
       0.0000060816   0.0000061724   3.3667570972 
       0.0000060768   0.0000061456   3.3667572795 
       0.0000060593   0.0000061057   3.3667575847 
       0.0000060350   0.0000060350   3.3667569200 
       0.0000072700   0.0000072700   4.4890101976 
       0.0000073044   0.0000073608   4.4890096101 
       0.0000073228   0.0000074117   4.4890092879 
       0.0000073353   0.0000074460   4.4890090999 
       0.0000073384   0.0000074625   4.4890097401 
       0.0000073418   0.0000074625   4.4890097554 
       0.0000073322   0.0000074460   4.4890091384 
       0.0000073253   0.0000074117   4.4890093306 
       0.0000073028   0.0000073608   4.4890096344 
       0.0000072706   0.0000072700   4.4890101863 
       0.0000073608   0.0000073044   4.4890096101 
       0.0000073756   0.0000073756   4.4890096637 
       0.0000073860   0.0000074325   4.4890095264 
       0.0000074021   0.0000074715   4.4890097504 
       0.0000073962   0.0000074921   4.4890097626 
       0.0000074110   0.0000074921   4.4890098254 
       0.0000073887   0.0000074715   4.4890099117 
       0.0000073967   0.0000074325   4.4890097164 
       0.0000073687   0.0000073756   4.4890097988 
       0.0000073631   0.0000073044   4.4890096287 
       0.0000074117   0.0000073228   4.4890092879 
       0.0000074325   0.0000073860   4.4890095264 
       0.0000074341   0.0000074341   4.4890093578 
       0.0000074576   0.0000074635   4.4890096759 
       0.0000074409   0.0000074771   4.4890096923 
       0.0000074657   0.0000074771   4.4890097451 
       0.0000074353   0.0000074635   4.4890098113 
       0.0000074518   0.0000074341   4.4890095171 
       0.0000074212   0.0000073860   4.4890096392 
       0.0000074156   0.0000073228   4.4890093022 
       0.0000074460   0.0000073353   4.4890090999 
       0.0000074715   0.0000074021   4.4890097504 
       0.0000074635   0.0000074576   4.4890096759 
       0.0000074979   0.0000074979   4.4890098445 
       0.0000074708   0.0000075192   4.4890095637 
       0.0000075028   0.0000075192   4.4890095589 
       0.0000074690   0.0000074979   4.4890098313 
       0.0000074864   0.0000074576   4.4890096576 
       0.0000074568   0.0000074021   4.4890097308 
       0.0000074510   0.0000073353   4.4890090823 
       0.0000074625   0.0000073384   4.4890097401 
       0.0000074921   0.0000073962   4.4890097626 
       0.0000074771   0.0000074409   4.4890096923 
       0.0000075192   0.0000074708   4.4890095637 
       0.0000074855   0.0000074855   4.4890090873 
       0.0000075214   0.0000074855   4.4890090299 
       0.0000074869   0.0000074708   4.4890094147 
       0.0000075027   0.0000074409   4.4890095116 
       0.0000074757   0.0000073962   4.4890096217 
       0.0000074681   0.0000073384   4.4890096929 
       0.0000074625   0.0000073418   4.4890097554 
       0.0000074921   0.0000074110   4.4890098254 
       0.0000074771   0.0000074657   4.4890097451 
       0.0000075192   0.0000075028   4.4890095589 
       0.0000074855   0.0000075214   4.4890090299 
       0.0000075214   0.0000075214   4.4890089725 
       0.0000074869   0.0000075028   4.4890094100 
       0.0000075027   0.0000074657   4.4890095643 
       0.0000074757   0.0000074110   4.4890096845 
       0.0000074681   0.0000073418   4.4890097082 
       0.0000074460   0.0000073322   4.4890091384 
       0.0000074715   0.0000073887   4.4890099117 
       0.0000074635   0.0000074353   4.4890098113 
       0.0000074979   0.0000074690   4.4890098313 
       0.0000074708   0.0000074869   4.4890094147 
       0.0000075028   0.0000074869   4.4890094100 
       0.0000074690   0.0000074690   4.4890098182 
       0.0000074864   0.0000074353   4.4890097930 
       0.0000074568   0.0000073887   4.4890098921 
       0.0000074510   0.0000073322   4.4890091208 
       0.0000074117   0.0000073253   4.4890093306 
       0.0000074325   0.0000073967   4.4890097164 
       0.0000074341   0.0000074518   4.4890095171 
       0.0000074576   0.0000074864   4.4890096576 
       0.0000074409   0.0000075027   4.4890095116 
       0.0000074657   0.0000075027   4.4890095643 
       0.0000074353   0.0000074864   4.4890097930 
       0.0000074518   0.0000074518   4.4890096765 
       0.0000074212   0.0000073967   4.4890098292 
       0.0000074156   0.0000073253   4.4890093449 
       0.0000073608   0.0000073028   4.4890096344 
       0.0000073756   0.0000073687   4.4890097988 
       0.0000073860   0.0000074212   4.4890096392 
       0.0000074021   0.0000074568   4.4890097308 
       0.0000073962   0.0000074757   4.4890096217 
       0.0000074110   0.0000074757   4.4890096845 
       0.0000073887   0.0000074568   4.4890098921 
       0.0000073967   0.0000074212   4.4890098292 
       0.0000073687   0.0000073687   4.4890099339 
       0.0000073631   0.0000073028   4.4890096530 
       0.0000072700   0.0000072706   4.4890101863 
       0.0000073044   0.0000073631   4.4890096287 
       0.0000073228   0.0000074156   4.4890093022 
       0.0000073353   0.0000074510   4.4890090823 
       0.0000073384   0.0000074681   4.4890096929 
       0.0000073418   0.0000074681   4.4890097082 
       0.0000073322   0.0000074510   4.4890091208 
       0.0000073253   0.0000074156   4.4890093449 
       0.0000073028   0.0000073631   4.4890096530 
       0.0000072706   0.0000072706   4.4890101749 
       0.0000081856   0.0000081856   5.6112637161 
       0.0000082275   0.0000082964   5.6112622301 
       0.0000082500   0.0000083592   5.6112620127 
       0.0000082650   0.0000084019   5.6112617212 
       0.0000082692   0.0000084227   5.6112618525 
       0.0000082726   0.0000084227   5.6112618305 
       0.0000082619   0.0000084019   5.6112616631 
       0.0000082524   0.0000083592   5.6112619391 
       0.0000082259   0.0000082964   5.6112621658 
       0.0000081862   0.0000081856   5.6112636795 
       0.0000082964   0.0000082275   5.6112622301 
       0.0000083142   0.0000083142   5.6112625212 
       0.0000083274   0.0000083837   5.6112621597 
       0.0000083458   0.0000084310   5.6112622556 
       0.0000083407   0.0000084560   5.6112623049 
       0.0000083558   0.0000084560   5.6112622353 
       0.0000083321   0.0000084310   5.6112620746 
       0.0000083383   0.0000083837   5.6112619393 
       0.0000083072   0.0000083142   5.6112623478 
       0.0000082988   0.0000082275   5.6112621696 
       0.0000083592   0.0000082500   5.6112620127 
       0.0000083837   0.0000083274   5.6112621597 
       0.0000083873   0.0000083873   5.6112619798 
       0.0000084130   0.0000084249   5.6112621360 
       0.0000083967   0.0000084426   5.6112622636 
       0.0000084219   0.0000084426   5.6112622053 
       0.0000083903   0.0000084249   5.6112619841 
       0.0000084053   0.0000083873   5.6112617945 
       0.0000083721   0.0000083274   5.6112620135 
       0.0000083631   0.0000082500   5.6112619605 
       0.0000084019   0.0000082650   5.6112617212 
       0.0000084310   0.0000083458   5.6112622556 
       0.0000084249   0.0000084130   5.6112621360 
       0.0000084616   0.0000084616   5.6112617954 
       0.0000084347   0.0000084873   5.6112615452 
       0.0000084673   0.0000084873   5.6112615466 
       0.0000084323   0.0000084616   5.6112617979 
       0.0000084482   0.0000084130   5.6112621356 
       0.0000084161   0.0000083458   5.6112622482 
       0.0000084070   0.0000082650   5.6112617042 
       0.0000084227   0.0000082692   5.6112618525 
       0.0000084560   0.0000083407   5.6112623049 
       0.0000084426   0.0000083967   5.6112622636 
       0.0000084873   0.0000084347   5.6112615452 
       0.0000084536   0.0000084536   5.6112612222 
       0.0000084901   0.0000084536   5.6112612779 
       0.0000084544   0.0000084347   5.6112616880 
       0.0000084687   0.0000083967   5.6112624313 
       0.0000084393   0.0000083407   5.6112624234 
       0.0000084284   0.0000082692   5.6112618671 
       0.0000084227   0.0000082726   5.6112618305 
       0.0000084560   0.0000083558   5.6112622353 
       0.0000084426   0.0000084219   5.6112622053 
       0.0000084873   0.0000084673   5.6112615466 
       0.0000084536   0.0000084901   5.6112612779 
       0.0000084901   0.0000084901   5.6112613335 
       0.0000084544   0.0000084673   5.6112616894 
       0.0000084687   0.0000084219   5.6112623729 
       0.0000084393   0.0000083558   5.6112623538 
       0.0000084284   0.0000082726   5.6112618451 
       0.0000084019   0.0000082619   5.6112616631 
       0.0000084310   0.0000083321   5.6112620746 
       0.0000084249   0.0000083903   5.6112619841 
       0.0000084616   0.0000084323   5.6112617979 
       0.0000084347   0.0000084544   5.6112616880 
       0.0000084673   0.0000084544   5.6112616894 
       0.0000084323   0.0000084323   5.6112618003 
       0.0000084482   0.0000083903   5.6112619837 
       0.0000084161   0.0000083321   5.6112620671 
       0.0000084070   0.0000082619   5.6112616461 
       0.0000083592   0.0000082524   5.6112619391 
       0.0000083837   0.0000083383   5.6112619393 
       0.0000083873   0.0000084053   5.6112617945 
       0.0000084130   0.0000084482   5.6112621356 
       0.0000083967   0.0000084687   5.6112624313 
       0.0000084219   0.0000084687   5.6112623729 
       0.0000083903   0.0000084482   5.6112619837 
       0.0000084053   0.0000084053   5.6112616092 
       0.0000083721   0.0000083383   5.6112617930 
       0.0000083631   0.0000082524   5.6112618869 
       0.0000082964   0.0000082259   5.6112621658 
       0.0000083142   0.0000083072   5.6112623478 