<VTKFile type="UnstructuredGrid" version="0.1" byte_order="LittleEndian">
  <UnstructuredGrid>
    <Piece NumberOfPoints="512" NumberOfCells="343">
     <PointData Scalars="scalars">
      <DataArray type="Float32" Name="Displacement" NumberOfComponents="3" format="ascii">
       0.0000000000   0.0000000000   0.0000000000 
       0.0000000000   0.0000000000   0.0000000000 
       0.0000000000   0.0000000000   0.0000000000 
       0.0000000000   0.0000000000   0.0000000000 
       0.0000000000   0.0000000000   0.0000000000 
       0.0000000000   0.0000000000   0.0000000000 
       0.0000000000   0.0000000000   0.0000000000 
       0.0000000000   0.0000000000   0.0000000000 
       0.0000000000   0.0000000000   0.0000000000 
       0.0000000000   0.0000000000   0.0000000000 
       0.0000000000   0.0000000000   0.0000000000 
       0.0000000000   0.0000000000   0.0000000000 
       0.0000000000   0.0000000000   0.0000000000 
       0.0000000000   0.0000000000   0.0000000000 
       0.0000000000   0.0000000000   0.0000000000 
       0.0000000000   0.0000000000   0.0000000000 
       0.0000000000   0.0000000000   0.0000000000 
       0.0000000000   0.0000000000   0.0000000000 
       0.0000000000   0.0000000000   0.0000000000 
       0.0000000000   0.0000000000   0.0000000000 
       0.0000000000   0.0000000000   0.0000000000 
       0.0000000000   0.0000000000   0.0000000000 
       0.0000000000   0.0000000000   0.0000000000 
       0.0000000000   0.0000000000   0.0000000000 
       0.0000000000   0.0000000000   0.0000000000 
       0.0000000000   0.0000000000   0.0000000000 
       0.0000000000   0.0000000000   0.0000000000 
       0.0000000000   0.0000000000   0.0000000000 
       0.0000000000   0.0000000000   0.0000000000 
       0.0000000000   0.0000000000   0.0000000000 
       0.0000000000   0.0000000000   0.0000000000 
       0.0000000000   0.0000000000   0.0000000000 
       0.0000000000   0.0000000000   0.0000000000 
       0.0000000000   0.0000000000   0.0000000000 
       0.0000000000   0.0000000000   0.0000000000 
       0.0000000000   0.0000000000   0.0000000000 
       0.0000000000   0.0000000000   0.0000000000 
       0.0000000000   0.0000000000   0.0000000000 
       0.0000000000   0.0000000000   0.0000000000 
       0.0000000000   0.0000000000   0.0000000000 
       0.0000000000   0.0000000000   0.0000000000 
       0.0000000000   0.0000000000   0.0000000000 
       0.0000000000   0.0000000000   0.0000000000 
       0.0000000000   0.0000000000   0.0000000000 
       0.0000000000   0.0000000000   0.0000000000 
       0.0000000000   0.0000000000   0.0000000000 
       0.0000000000   0.0000000000   0.0000000000 
       0.0000000000   0.0000000000   0.0000000000 
       0.0000000000   0.0000000000   0.0000000000 
       0.0000000000   0.0000000000   0.0000000000 
       0.0000000000   0.0000000000   0.0000000000 
       0.0000000000   0.0000000000   0.0000000000 
       0.0000000000   0.0000000000   0.0000000000 
       0.0000000000   0.0000000000   0.0000000000 
       0.0000000000   0.0000000000   0.0000000000 
       0.0000000000   0.0000000000   0.0000000000 
       0.0000000000   0.0000000000   0.0000000000 
       0.0000000000   0.0000000000   0.0000000000 
       0.0000000000   0.0000000000   0.0000000000 
       0.0000000000   0.0000000000   0.0000000000 
       0.0000000000   0.0000000000   0.0000000000 
       0.0000000000   0.0000000000   0.0000000000 
       0.0000000000   0.0000000000   0.0000000000 
       0.0000000000   0.0000000000   0.0000000000 
       0.0000032346   0.0000032346   1.4428972924 
       0.0000032382   0.0000032857   1.4428959905 
       0.0000032661   0.0000033090   1.4428964715 
       0.0000032487   0.0000033180   1.4428962998 
       0.0000032651   0.0000033180   1.4428962898 
       0.0000032522   0.0000033090   1.4428964470 
       0.0000032475   0.0000032857   1.4428959640 
       0.0000032310   0.0000032346   1.4428972755 
       0.0000032857   0.0000032382   1.4428959905 
       0.0000032449   0.0000032449   1.4428963155 
       0.0000033298   0.0000032612   1.4428963510 
       0.0000032463   0.0000032770   1.4428961863 
       0.0000033172   0.0000032770   1.4428961604 
       0.0000032697   0.0000032612   1.4428962888 
       0.0000032850   0.0000032449   1.4428962543 
       0.0000032719   0.0000032382   1.4428959665 
       0.0000033090   0.0000032661   1.4428964715 
       0.0000032612   0.0000033298   1.4428963510 
       0.0000033634   0.0000033634   1.4428964366 
       0.0000032485   0.0000033722   1.4428960835 
       0.0000033619   0.0000033722   1.4428960768 
       0.0000032673   0.0000033634   1.4428964193 
       0.0000033252   0.0000033298   1.4428963313 
       0.0000032868   0.0000032661   1.4428964592 
       0.0000033180   0.0000032487   1.4428962998 
       0.0000032770   0.0000032463   1.4428961863 
       0.0000033722   0.0000032485   1.4428960835 
       0.0000032526   0.0000032526   1.4428960989 
       0.0000033892   0.0000032526   1.4428961216 
       0.0000032565   0.0000032485   1.4428961353 
       0.0000033541   0.0000032463   1.4428962302 
       0.0000032914   0.0000032487   1.4428963045 
       0.0000033180   0.0000032651   1.4428962898 
       0.0000032770   0.0000033172   1.4428961604 
       0.0000033722   0.0000033619   1.4428960768 
       0.0000032526   0.0000033892   1.4428961216 
       0.0000033892   0.0000033892   1.4428961444 
       0.0000032565   0.0000033619   1.4428961286 
       0.0000033541   0.0000033172   1.4428962043 
       0.0000032914   0.0000032651   1.4428962946 
       0.0000033090   0.0000032522   1.4428964470 
       0.0000032612   0.0000032697   1.4428962888 
       0.0000033634   0.0000032673   1.4428964193 
       0.0000032485   0.0000032565   1.4428961353 
       0.0000033619   0.0000032565   1.4428961286 
       0.0000032673   0.0000032673   1.4428964020 
       0.0000033252   0.0000032697   1.4428962691 
       0.0000032868   0.0000032522   1.4428964347 
       0.0000032857   0.0000032475   1.4428959640 
       0.0000032449   0.0000032850   1.4428962543 
       0.0000033298   0.0000033252   1.4428963313 
       0.0000032463   0.0000033541   1.4428962302 
       0.0000033172   0.0000033541   1.4428962043 
       0.0000032697   0.0000033252   1.4428962691 
       0.0000032850   0.0000032850   1.4428961931 
       0.0000032719   0.0000032475   1.4428959400 
       0.0000032346   0.0000032310   1.4428972755 
       0.0000032382   0.0000032719   1.4428959665 
       0.0000032661   0.0000032868   1.4428964592 
       0.0000032487   0.0000032914   1.4428963045 
       0.0000032651   0.0000032914   1.4428962946 
       0.0000032522   0.0000032868   1.4428964347 
       0.0000032475   0.0000032719   1.4428959400 
       0.0000032310   0.0000032310   1.4428972586 
       0.0000057454   0.0000057454   2.8857928196 
       0.0000057552   0.0000058439   2.8857921434 
       0.0000058059   0.0000058888   2.8857926479 
       0.0000057757   0.0000059066   2.8857921701 
       0.0000058055   0.0000059066   2.8857921808 
       0.0000057806   0.0000058888   2.8857926709 
       0.0000057721   0.0000058439   2.8857921573 
       0.0000057387   0.0000057454   2.8857928036 
       0.0000058439   0.0000057552   2.8857921434 
       0.0000057748   0.0000057748   2.8857920993 
       0.0000059237   0.0000058099   2.8857923493 
       0.0000057769   0.0000058414   2.8857922282 
       0.0000059058   0.0000058414   2.8857922697 
       0.0000058145   0.0000058099   2.8857924456 
       0.0000058476   0.0000057748   2.8857921823 
       0.0000058187   0.0000057552   2.8857921498 
       0.0000058888   0.0000058059   2.8857926479 
       0.0000058099   0.0000059237   2.8857923493 
       0.0000059862   0.0000059862   2.8857923313 
       0.0000057850   0.0000060031   2.8857920253 
       0.0000059911   0.0000060031   2.8857920331 
       0.0000058117   0.0000059862   2.8857923491 
       0.0000059262   0.0000059237   2.8857923616 
       0.0000058486   0.0000058059   2.8857926378 
       0.0000059066   0.0000057757   2.8857921701 
       0.0000058414   0.0000057769   2.8857922282 
       0.0000060031   0.0000057850   2.8857920253 
       0.0000057947   0.0000057947   2.8857921212 
       0.0000060429   0.0000057947   2.8857920760 
       0.0000057929   0.0000057850   2.8857919192 
       0.0000059814   0.0000057769   2.8857921271 
       0.0000058582   0.0000057757   2.8857921314 
       0.0000059066   0.0000058055   2.8857921808 
       0.0000058414   0.0000059058   2.8857922697 
       0.0000060031   0.0000059911   2.8857920331 
       0.0000057947   0.0000060429   2.8857920760 
       0.0000060429   0.0000060429   2.8857920308 
       0.0000057929   0.0000059911   2.8857919270 
       0.0000059814   0.0000059058   2.8857921686 
       0.0000058582   0.0000058055   2.8857921421 
       0.0000058888   0.0000057806   2.8857926709 
       0.0000058099   0.0000058145   2.8857924456 
       0.0000059862   0.0000058117   2.8857923491 
       0.0000057850   0.0000057929   2.8857919192 
       0.0000059911   0.0000057929   2.8857919270 
       0.0000058117   0.0000058117   2.8857923670 
       0.0000059262   0.0000058145   2.8857924579 
       0.0000058486   0.0000057806   2.8857926608 
       0.0000058439   0.0000057721   2.8857921573 
       0.0000057748   0.0000058476   2.8857921823 
       0.0000059237   0.0000059262   2.8857923616 
       0.0000057769   0.0000059814   2.8857921271 
       0.0000059058   0.0000059814   2.8857921686 
       0.0000058145   0.0000059262   2.8857924579 
       0.0000058476   0.0000058476   2.8857922653 
       0.0000058187   0.0000057721   2.8857921638 
       0.0000057454   0.0000057387   2.8857928036 
       0.0000057552   0.0000058187   2.8857921498 
       0.0000058059   0.0000058486   2.8857926378 
       0.0000057757   0.0000058582   2.8857921314 
       0.0000058055   0.0000058582   2.8857921421 
       0.0000057806   0.0000058486   2.8857926608 
       0.0000057721   0.0000058187   2.8857921638 
       0.0000057387   0.0000057387   2.8857927875 
       0.0000076144   0.0000076144   4.3286869072 
       0.0000076344   0.0000077545   4.3286886628 
       0.0000076997   0.0000078191   4.3286886026 
       0.0000076641   0.0000078459   4.3286880487 
       0.0000077019   0.0000078459   4.3286880239 
       0.0000076677   0.0000078191   4.3286885409 
       0.0000076558   0.0000077545   4.3286885948 
       0.0000076060   0.0000076144   4.3286868609 
       0.0000077545   0.0000076344   4.3286886628 
       0.0000076746   0.0000076746   4.3286887168 
       0.0000078574   0.0000077305   4.3286884038 
       0.0000076782   0.0000077762   4.3286882427 
       0.0000078414   0.0000077762   4.3286881784 
       0.0000077192   0.0000077305   4.3286882490 
       0.0000077669   0.0000076746   4.3286885634 
       0.0000077226   0.0000076344   4.3286886002 
       0.0000078191   0.0000076997   4.3286886026 
       0.0000077305   0.0000078574   4.3286884038 
       0.0000079429   0.0000079429   4.3286881321 
       0.0000076980   0.0000079675   4.3286881625 
       0.0000079589   0.0000079675   4.3286881411 
       0.0000077219   0.0000079429   4.3286880777 
       0.0000078777   0.0000078574   4.3286883437 
       0.0000077682   0.0000076997   4.3286885669 
       0.0000078459   0.0000076641   4.3286880487 
       0.0000077762   0.0000076782   4.3286882427 
       0.0000079675   0.0000076980   4.3286881625 
       0.0000077153   0.0000077153   4.3286880514 
       0.0000080296   0.0000077153   4.3286880975 
       0.0000077014   0.0000076980   4.3286882667 
       0.0000079535   0.0000076782   4.3286883288 
       0.0000077846   0.0000076641   4.3286880525 
       0.0000078459   0.0000077019   4.3286880239 
       0.0000077762   0.0000078414   4.3286881784 
       0.0000079675   0.0000079589   4.3286881411 
       0.0000077153   0.0000080296   4.3286880975 
       0.0000080296   0.0000080296   4.3286881437 
       0.0000077014   0.0000079589   4.3286882453 
       0.0000079535   0.0000078414   4.3286882644 
       0.0000077846   0.0000077019   4.3286880278 
       0.0000078191   0.0000076677   4.3286885409 
       0.0000077305   0.0000077192   4.3286882490 
       0.0000079429   0.0000077219   4.3286880777 
       0.0000076980   0.0000077014   4.3286882667 
       0.0000079589   0.0000077014   4.3286882453 
       0.0000077219   0.0000077219   4.3286880234 
       0.0000078777   0.0000077192   4.3286881889 
       0.0000077682   0.0000076677   4.3286885052 
       0.0000077545   0.0000076558   4.3286885948 
       0.0000076746   0.0000077669   4.3286885634 
       0.0000078574   0.0000078777   4.3286883437 
       0.0000076782   0.0000079535   4.3286883288 
       0.0000078414   0.0000079535   4.3286882644 
       0.0000077192   0.0000078777   4.3286881889 
       0.0000077669   0.0000077669   4.3286884101 
       0.0000077226   0.0000076558   4.3286885322 
       0.0000076144   0.0000076060   4.3286868609 
       0.0000076344   0.0000077226   4.3286886002 
       0.0000076997   0.0000077682   4.3286885669 
       0.0000076641   0.0000077846   4.3286880525 
       0.0000077019   0.0000077846   4.3286880278 
       0.0000076677   0.0000077682   4.3286885052 
       0.0000076558   0.0000077226   4.3286885322 
       0.0000076060   0.0000076060   4.3286868145 
       0.0000089186   0.0000089186   5.7715819410 
       0.0000089506   0.0000090930   5.7715845331 
       0.0000090230   0.0000091763   5.7715842227 
       0.0000089897   0.0000092131   5.7715834544 
       0.0000090284   0.0000092131   5.7715834671 
       0.0000089902   0.0000091763   5.7715842486 
       0.0000089726   0.0000090930   5.7715845430 
       0.0000089100   0.0000089186   5.7715819064 
       0.0000090930   0.0000089506   5.7715845331 
       0.0000090178   0.0000090178   5.7715836581 
       0.0000092058   0.0000090944   5.7715837650 
       0.0000090265   0.0000091512   5.7715837460 
       0.0000091942   0.0000091512   5.7715838023 
       0.0000090638   0.0000090944   5.7715838942 
       0.0000091126   0.0000090178   5.7715837658 
       0.0000090602   0.0000089506   5.7715845324 
       0.0000091763   0.0000090230   5.7715842227 
       0.0000090944   0.0000092058   5.7715837650 
       0.0000093099   0.0000093099   5.7715832910 
       0.0000090643   0.0000093439   5.7715835498 
       0.0000093324   0.0000093439   5.7715835633 
       0.0000090829   0.0000093099   5.7715833209 
       0.0000092457   0.0000092058   5.7715837836 
       0.0000091240   0.0000090230   5.7715842024 
       0.0000092131   0.0000089897   5.7715834544 
       0.0000091512   0.0000090265   5.7715837460 
       0.0000093439   0.0000090643   5.7715835498 
       0.0000090916   0.0000090916   5.7715837004 
       0.0000094145   0.0000090916   5.7715836445 
       0.0000090704   0.0000090643   5.7715834176 
       0.0000093334   0.0000090265   5.7715836166 
       0.0000091501   0.0000089897   5.7715833972 
       0.0000092131   0.0000090284   5.7715834671 
       0.0000091512   0.0000091942   5.7715838023 
       0.0000093439   0.0000093324   5.7715835633 
       0.0000090916   0.0000094145   5.7715836445 
       0.0000094145   0.0000094145   5.7715835887 
       0.0000090704   0.0000093324   5.7715834310 
       0.0000093334   0.0000091942   5.7715836728 
       0.0000091501   0.0000090284   5.7715834100 
       0.0000091763   0.0000089902   5.7715842486 
       0.0000090944   0.0000090638   5.7715838942 
       0.0000093099   0.0000090829   5.7715833209 
       0.0000090643   0.0000090704   5.7715834176 
       0.0000093324   0.0000090704   5.7715834310 
       0.0000090829   0.0000090829   5.7715833507 
       0.0000092457   0.0000090638   5.7715839128 
       0.0000091240   0.0000089902   5.7715842283 
       0.0000090930   0.0000089726   5.7715845430 
       0.0000090178   0.0000091126   5.7715837658 
       0.0000092058   0.0000092457   5.7715837836 
       0.0000090265   0.0000093334   5.7715836166 
       0.0000091942   0.0000093334   5.7715836728 
       0.0000090638   0.0000092457   5.7715839128 
       0.0000091126   0.0000091126   5.7715838734 
       0.0000090602   0.0000089726   5.7715845423 
       0.0000089186   0.0000089100   5.7715819064 
       0.0000089506   0.0000090602   5.7715845324 
       0.0000090230   0.0000091240   5.7715842024 
       0.0000089897   0.0000091501   5.7715833972 
       0.0000090284   0.0000091501   5.7715834100 
       0.0000089902   0.0000091240   5.7715842283 
       0.0000089726   0.0000090602   5.7715845423 
       0.0000089100   0.0000089100   5.7715818717 
       0.0000097193   0.0000097193   7.2144791115 
       0.0000097700   0.0000099244   7.2144792930 
       0.0000098400   0.0000100257   7.2144798078 
       0.0000098164   0.0000100753   7.2144789082 
       0.0000098490   0.0000100753   7.2144788821 
       0.0000098123   0.0000100257   7.2144797413 
       0.0000097886   0.0000099244   7.2144792145 
       0.0000097120   0.0000097193   7.2144790464 
       0.0000099244   0.0000097700   7.2144792930 
       0.0000098683   0.0000098683   7.2144793602 
       0.0000100345   0.0000099657   7.2144793524 
       0.0000098862   0.0000100312   7.2144790321 
       0.0000100276   0.0000100312   7.2144789698 
       0.0000099147   0.0000099657   7.2144792011 
       0.0000099482   0.0000098683   7.2144792049 
       0.0000098968   0.0000097700   7.2144792180 
       0.0000100257   0.0000098400   7.2144798078 
       0.0000099657   0.0000100345   7.2144793524 
       0.0000101546   0.0000101546   7.2144788956 
       0.0000099492   0.0000102013   7.2144786340 
       0.0000101752   0.0000102013   7.2144786098 
       0.0000099631   0.0000101546   7.2144788336 
       0.0000100933   0.0000100345   7.2144792813 
       0.0000099816   0.0000098400   7.2144797593 
       0.0000100753   0.0000098164   7.2144789082 
       0.0000100312   0.0000098862   7.2144790321 
       0.0000102013   0.0000099492   7.2144786340 
       0.0000099898   0.0000099898   7.2144791330 
       0.0000102621   0.0000099898   7.2144791692 
       0.0000099706   0.0000099492   7.2144787139 
       0.0000101848   0.0000098862   7.2144790923 
       0.0000100222   0.0000098164   7.2144788961 
       0.0000100753   0.0000098490   7.2144788821 
       0.0000100312   0.0000100276   7.2144789698 
       0.0000102013   0.0000101752   7.2144786098 
       0.0000099898   0.0000102621   7.2144791692 
       0.0000102621   0.0000102621   7.2144792053 
       0.0000099706   0.0000101752   7.2144786896 
       0.0000101848   0.0000100276   7.2144790300 
       0.0000100222   0.0000098490   7.2144788700 
       0.0000100257   0.0000098123   7.2144797413 
       0.0000099657   0.0000099147   7.2144792011 
       0.0000101546   0.0000099631   7.2144788336 
       0.0000099492   0.0000099706   7.2144787139 
       0.0000101752   0.0000099706   7.2144786896 
       0.0000099631   0.0000099631   7.2144787716 
       0.0000100933   0.0000099147   7.2144791300 
       0.0000099816   0.0000098123   7.2144796929 
       0.0000099244   0.0000097886   7.2144792145 
       0.0000098683   0.0000099482   7.2144792049 
       0.0000100345   0.0000100933   7.2144792813 
       0.0000098862   0.0000101848   7.2144790923 
       0.0000100276   0.0000101848   7.2144790300 
       0.0000099147   0.0000100933   7.2144791300 
       0.0000099482   0.0000099482   7.2144790497 
       0.0000098968   0.0000097886   7.2144791396 
       0.0000097193   0.0000097120   7.2144790464 
       0.0000097700   0.0000098968   7.2144792180 
       0.0000098400   0.0000099816   7.2144797593 
       0.0000098164   0.0000100222   7.2144788961 
       0.0000098490   0.0000100222   7.2144788700 
       0.0000098123   0.0000099816   7.2144796929 
       0.0000097886   0.0000098968   7.2144791396 
       0.0000097120   0.0000097120   7.2144789813 
       0.0000100851   0.0000100851   8.6573748812 
       0.0000101310   0.0000102945   8.6573743565 
       0.0000102000   0.0000104306   8.6573755272 
       0.0000101967   0.0000104912   8.6573747953 
       0.0000102174   0.0000104912   8.6573747972 
       0.0000101826   0.0000104306   8.6573755263 
       0.0000101427   0.0000102945   8.6573743362 
       0.0000100805   0.0000100851   8.6573748235 
       0.0000102945   0.0000101310   8.6573743565 
       0.0000102682   0.0000102682   8.6573753210 
       0.0000103915   0.0000103988   8.6573748521 
       0.0000103060   0.0000104691   8.6573745355 
       0.0000103952   0.0000104691   8.6573745632 
       0.0000103159   0.0000103988   8.6573749126 
       0.0000103187   0.0000102682   8.6573753607 
       0.0000102770   0.0000101310   8.6573743281 
       0.0000104306   0.0000102000   8.6573755272 
       0.0000103988   0.0000103915   8.6573748521 
       0.0000105351   0.0000105351   8.6573745202 
       0.0000104105   0.0000105943   8.6573744190 
       0.0000105532   0.0000105943   8.6573744226 
       0.0000104142   0.0000105351   8.6573745254 
       0.0000104794   0.0000103915   8.6573748438 
       0.0000104028   0.0000102000   8.6573754918 
       0.0000104912   0.0000101967   8.6573747953 
       0.0000104691   0.0000103060   8.6573745355 
       0.0000105943   0.0000104105   8.6573744190 
       0.0000104651   0.0000104651   8.6573745341 
       0.0000106369   0.0000104651   8.6573744983 
       0.0000104487   0.0000104105   8.6573743322 
       0.0000105662   0.0000103060   8.6573744437 
       0.0000104576   0.0000101967   8.6573747403 
       0.0000104912   0.0000102174   8.6573747972 
       0.0000104691   0.0000103952   8.6573745632 
       0.0000105943   0.0000105532   8.6573744226 
       0.0000104651   0.0000106369   8.6573744983 
       0.0000106369   0.0000106369   8.6573744626 
       0.0000104487   0.0000105532   8.6573743359 
       0.0000105662   0.0000103952   8.6573744714 
       0.0000104576   0.0000102174   8.6573747423 
       0.0000104306   0.0000101826   8.6573755263 
       0.0000103988   0.0000103159   8.6573749126 
       0.0000105351   0.0000104142   8.6573745254 
       0.0000104105   0.0000104487   8.6573743322 
       0.0000105532   0.0000104487   8.6573743359 
       0.0000104142   0.0000104142   8.6573745305 
       0.0000104794   0.0000103159   8.6573749044 
       0.0000104028   0.0000101826   8.6573754909 
       0.0000102945   0.0000101427   8.6573743362 
       0.0000102682   0.0000103187   8.6573753607 
       0.0000103915   0.0000104794   8.6573748438 
       0.0000103060   0.0000105662   8.6573744437 
       0.0000103952   0.0000105662   8.6573744714 
       0.0000103159   0.0000104794   8.6573749044 
       0.0000103187   0.0000103187   8.6573754005 
       0.0000102770   0.0000101427   8.6573743078 
       0.0000100851   0.0000100805   8.6573748235 
       0.0000101310   0.0000102770   8.6573743281 
       0.0000102000   0.0000104028   8.6573754918 
       0.0000101967   0.0000104576   8.6573747403 
       0.0000102174   0.0000104576   8.6573747423 
       0.0000101826   0.0000104028   8.6573754909 
       0.0000101427   0.0000102770   8.6573743078 
       0.0000100805   0.0000100805   8.6573747659 
       0.0000098065   0.0000098065  10.1002687058 
       0.0000099998   0.0000102467  10.1002688264 
       0.0000100769   0.0000103775  10.1002704253 
       0.0000101000   0.0000104489  10.1002688293 
       0.0000101047   0.0000104489  10.1002688145 
       0.0000100729   0.0000103775  10.1002703839 
       0.0000100025   0.0000102467  10.1002687689 
       0.0000098053   0.0000098065  10.1002686242 
       0.0000102467   0.0000099998  10.1002688264 
       0.0000102959   0.0000102959  10.1002698275 
       0.0000103640   0.0000104439  10.1002690492 
       0.0000103626   0.0000105128  10.1002686821 
       0.0000103833   0.0000105128  10.1002686618 
       0.0000103465   0.0000104439  10.1002689964 
       0.0000103076   0.0000102959  10.1002697607 
       0.0000102421   0.0000099998  10.1002687669 
       0.0000103775   0.0000100769  10.1002704253 
       0.0000104439   0.0000103640  10.1002690492 
       0.0000105079   0.0000105079  10.1002691179 
       0.0000104933   0.0000105754  10.1002688410 
       0.0000105264   0.0000105754  10.1002688295 
       0.0000104799   0.0000105079  10.1002690859 
       0.0000104627   0.0000103640  10.1002690052 
       0.0000103702   0.0000100769  10.1002703764 
       0.0000104489   0.0000101000  10.1002688293 
       0.0000105128   0.0000103626  10.1002686821 
       0.0000105754   0.0000104933  10.1002688410 
       0.0000105593   0.0000105593  10.1002684391 
       0.0000105991   0.0000105593  10.1002684406 
       0.0000105417   0.0000104933  10.1002688401 
       0.0000105354   0.0000103626  10.1002686675 
       0.0000104401   0.0000101000  10.1002687922 
       0.0000104489   0.0000101047  10.1002688145 
       0.0000105128   0.0000103833  10.1002686618 
       0.0000105754   0.0000105264  10.1002688295 
       0.0000105593   0.0000105991  10.1002684406 
       0.0000105991   0.0000105991  10.1002684420 
       0.0000105417   0.0000105264  10.1002688286 
       0.0000105354   0.0000103833  10.1002686472 
       0.0000104401   0.0000101047  10.1002687774 
       0.0000103775   0.0000100729  10.1002703839 
       0.0000104439   0.0000103465  10.1002689964 
       0.0000105079   0.0000104799  10.1002690859 
       0.0000104933   0.0000105417  10.1002688401 
       0.0000105264   0.0000105417  10.1002688286 
       0.0000104799   0.0000104799  10.1002690540 
       0.0000104627   0.0000103465  10.1002689523 
       0.0000103702   0.0000100729  10.1002703349 
       0.0000102467   0.0000100025  10.1002687689 
       0.0000102959   0.0000103076  10.1002697607 
       0.0000103640   0.0000104627  10.1002690052 
       0.0000103626   0.0000105354  10.1002686675 
       0.0000103833   0.0000105354  10.1002686472 
       0.0000103465   0.0000104627  10.1002689523 
       0.0000103076   0.0000103076  10.1002696939 
       0.0000102421   0.0000100025  10.1002687094 
       0.0000098065   0.0000098053  10.1002686242 
       0.0000099998   0.0000102421  10.1002687669 
       0.0000100769   0.0000103702  10.1002703764 
       0.0000101000   0.0000104401  10.1002687922 
       0.0000101047   0.0000104401  10.1002687774 
       0.0000100729   0.0000103702  10.1002703349 
       0.0000100025   0.0000102421  10.1002687094 
       0.0000098053   0.0000098053  10.1002685427 
      </DataArray>
    </PointData>
    <Points>
      <DataArray type="Float32" NumberOfComponents="3" format="ascii">
       0.0000000000   0.0000000000   0.0000000000 
       0.1428571492   0.0000000000   0.0000000000 
       0.2857142985   0.0000000000   0.0000000000 
       0.4285714626   0.0000000000   0.0000000000 
       0.5714285970   0.0000000000   0.0000000000 
       0.7142857313   0.0000000000   0.0000000000 
       0.8571429253   0.0000000000   0.0000000000 
       1.0000000000   0.0000000000   0.0000000000 
       0.0000000000   0.1428571492   0.0000000000 
       0.1428571492   0.1428571492   0.0000000000 
       0.2857142985   0.1428571492   0.0000000000 
       0.4285714626   0.1428571492   0.0000000000 
       0.5714285970   0.1428571492   0.0000000000 
       0.7142857313   0.1428571492   0.0000000000 
       0.8571429253   0.1428571492   0.0000000000 
       1.0000000000   0.1428571492   0.0000000000 
       0.0000000000   0.2857142985   0.0000000000 
       0.1428571492   0.2857142985   0.0000000000 
       0.2857142985   0.2857142985   0.0000000000 
       0.4285714626   0.2857142985   0.0000000000 
       0.5714285970   0.2857142985   0.0000000000 
       0.7142857313   0.2857142985   0.0000000000 
       0.8571429253   0.2857142985   0.0000000000 
       1.0000000000   0.2857142985   0.0000000000 
       0.0000000000   0.4285714626   0.0000000000 
       0.1428571492   0.4285714626   0.0000000000 
       0.2857142985   0.4285714626   0.0000000000 
       0.4285714626   0.4285714626   0.0000000000 
       0.5714285970   0.4285714626   0.0000000000 
       0.7142857313   0.4285714626   0.0000000000 
       0.8571429253   0.4285714626   0.0000000000 
       1.0000000000   0.4285714626   0.0000000000 
       0.0000000000   0.5714285970   0.0000000000 
       0.1428571492   0.5714285970   0.0000000000 
       0.2857142985   0.5714285970   0.0000000000 
       0.4285714626   0.5714285970   0.0000000000 
       0.5714285970   0.5714285970   0.0000000000 
       0.7142857313   0.5714285970   0.0000000000 
       0.8571429253   0.5714285970   0.0000000000 
       1.0000000000   0.5714285970   0.0000000000 
       0.0000000000   0.7142857313   0.0000000000 
       0.1428571492   0.7142857313   0.0000000000 
       0.2857142985   0.7142857313   0.0000000000 
       0.4285714626   0.7142857313   0.0000000000 
       0.5714285970   0.7142857313   0.0000000000 
       0.7142857313   0.7142857313   0.0000000000 
       0.8571429253   0.7142857313   0.0000000000 
       1.0000000000   0.7142857313   0.0000000000 
       0.0000000000   0.8571429253   0.0000000000 
       0.1428571492   0.8571429253   0.0000000000 
       0.2857142985   0.8571429253   0.0000000000 
       0.4285714626   0.8571429253   0.0000000000 
       0.5714285970   0.8571429253   0.0000000000 
       0.7142857313   0.8571429253   0.0000000000 
       0.8571429253   0.8571429253   0.0000000000 
       1.0000000000   0.8571429253   0.0000000000 
       0.0000000000   1.0000000000   0.0000000000 
       0.1428571492   1.0000000000   0.0000000000 
       0.2857142985   1.0000000000   0.0000000000 
       0.4285714626   1.0000000000   0.0000000000 
       0.5714285970   1.0000000000   0.0000000000 
       0.7142857313   1.0000000000   0.0000000000 
       0.8571429253   1.0000000000   0.0000000000 
       1.0000000000   1.0000000000   0.0000000000 
       0.0000000000   0.0000000000   0.1428571492 
       0.1428571492   0.0000000000   0.1428571492 
       0.2857142985   0.0000000000   0.1428571492 
       0.4285714626   0.0000000000   0.1428571492 