<VTKFile type="UnstructuredGrid" version="0.1" byte_order="LittleEndian">
  <UnstructuredGrid>
    <Piece NumberOfPoints="1728" NumberOfCells="1331">
     <PointData Scalars="scalars">
      <DataArray type="Float32" Name="Displacement" NumberOfComponents="3" format="ascii">
       0.0000016284   0.0000016284   0.0000016284 
       0.0000032568   0.0000032568   0.0000032568 
       0.0000032568   0.0000032568   0.0000032568 
       0.0000032568   0.0000032568   0.0000032568 
       0.0000032568   0.0000032568   0.0000032568 
       0.0000032568   0.0000032568   0.0000032568 
       0.0000032568   0.0000032568   0.0000032568 
       0.0000032568   0.0000032568   0.0000032568 
       0.0000032568   0.0000032568   0.0000032568 
       0.0000032568   0.0000032568   0.0000032568 
       0.0000032568   0.0000032568   0.0000032568 
       0.0000016284   0.0000016284   0.0000016284 
       0.0000032568   0.0000032568   0.0000032568 
       0.0000065135   0.0000065135   0.0000065135 
       0.0000065135   0.0000065135   0.0000065135 
       0.0000065135   0.0000065135   0.0000065135 
       0.0000065135   0.0000065135   0.0000065135 
       0.0000065135   0.0000065135   0.0000065135 
       0.0000065135   0.0000065135   0.0000065135 
       0.0000065135   0.0000065135   0.0000065135 
       0.0000065135   0.0000065135   0.0000065135 
       0.0000065135   0.0000065135   0.0000065135 
       0.0000065135   0.0000065135   0.0000065135 
       0.0000032568   0.0000032568   0.0000032568 
       0.0000032568   0.0000032568   0.0000032568 
       0.0000065135   0.0000065135   0.0000065135 
       0.0000065135   0.0000065135   0.0000065135 
       0.0000065135   0.0000065135   0.0000065135 
       0.0000065135   0.0000065135   0.0000065135 
       0.0000065135   0.0000065135   0.0000065135 
       0.0000065135   0.0000065135   0.0000065135 
       0.0000065135   0.0000065135   0.0000065135 
       0.0000065135   0.0000065135   0.0000065135 
       0.0000065135   0.0000065135   0.0000065135 
       0.0000065135   0.0000065135   0.0000065135 
       0.0000032568   0.0000032568   0.0000032568 
       0.0000032568   0.0000032568   0.0000032568 
       0.0000065135   0.0000065135   0.0000065135 
       0.0000065135   0.0000065135   0.0000065135 
       0.0000065135   0.0000065135   0.0000065135 
       0.0000065135   0.0000065135   0.0000065135 
       0.0000065135   0.0000065135   0.0000065135 
       0.0000065135   0.0000065135   0.0000065135 
       0.0000065135   0.0000065135   0.0000065135 
       0.0000065135   0.0000065135   0.0000065135 
       0.0000065135   0.0000065135   0.0000065135 
       0.0000065135   0.0000065135   0.0000065135 
       0.0000032568   0.0000032568   0.0000032568 
       0.0000032568   0.0000032568   0.0000032568 
       0.0000065135   0.0000065135   0.0000065135 
       0.0000065135   0.0000065135   0.0000065135 
       0.0000065135   0.0000065135   0.0000065135 
       0.0000065135   0.0000065135   0.0000065135 
       0.0000065135   0.0000065135   0.0000065135 
       0.0000065135   0.0000065135   0.0000065135 
       0.0000065135   0.0000065135   0.0000065135 
       0.0000065135   0.0000065135   0.0000065135 
       0.0000065135   0.0000065135   0.0000065135 
       0.0000065135   0.0000065135   0.0000065135 
       0.0000032568   0.0000032568   0.0000032568 
       0.0000032568   0.0000032568   0.0000032568 
       0.0000065135   0.0000065135   0.0000065135 
       0.0000065135   0.0000065135   0.0000065135 
       0.0000065135   0.0000065135   0.0000065135 
       0.0000065135   0.0000065135   0.0000065135 
       0.0000065135   0.0000065135   0.0000065135 
       0.0000065135   0.0000065135   0.0000065135 
       0.0000065135   0.0000065135   0.0000065135 
       0.0000065135   0.0000065135   0.0000065135 
       0.0000065135   0.0000065135   0.0000065135 
       0.0000065135   0.0000065135   0.0000065135 
       0.0000032568   0.0000032568   0.0000032568 
       0.0000032568   0.0000032568   0.0000032568 
       0.0000065135   0.0000065135   0.0000065135 
       0.0000065135   0.0000065135   0.0000065135 
       0.0000065135   0.0000065135   0.0000065135 
       0.0000065135   0.0000065135   0.0000065135 
       0.0000065135   0.0000065135   0.0000065135 
       0.0000065135   0.0000065135   0.0000065135 
       0.0000065135   0.0000065135   0.0000065135 
       0.0000065135   0.0000065135   0.0000065135 
       0.0000065135   0.0000065135   0.0000065135 
       0.0000065135   0.0000065135   0.0000065135 
       0.0000032568   0.0000032568   0.0000032568 
       0.0000032568   0.0000032568   0.0000032568 
       0.0000065135   0.0000065135   0.0000065135 
       0.0000065135   0.0000065135   0.0000065135 
       0.0000065135   0.0000065135   0.0000065135 
       0.0000065135   0.0000065135   0.0000065135 
       0.0000065135   0.0000065135   0.0000065135 
       0.0000065135   0.0000065135   0.0000065135 
       0.0000065135   0.0000065135   0.0000065135 
       0.0000065135   0.0000065135   0.0000065135 
       0.0000065135   0.0000065135   0.0000065135 
       0.0000065135   0.0000065135   0.0000065135 
       0.0000032568   0.0000032568   0.0000032568 
       0.0000032568   0.0000032568   0.0000032568 
       0.0000065135   0.0000065135   0.0000065135 
       0.0000065135   0.0000065135   0.0000065135 
       0.0000065135   0.0000065135   0.0000065135 
       0.0000065135   0.0000065135   0.0000065135 
       0.0000065135   0.0000065135   0.0000065135 
       0.0000065135   0.0000065135   0.0000065135 
       0.0000065135   0.0000065135   0.0000065135 
       0.0000065135   0.0000065135   0.0000065135 
       0.0000065135   0.0000065135   0.0000065135 
       0.0000065135   0.0000065135   0.0000065135 
       0.0000032568   0.0000032568   0.0000032568 
       0.0000032568   0.0000032568   0.0000032568 
       0.0000065135   0.0000065135   0.0000065135 
       0.0000065135   0.0000065135   0.0000065135 
       0.0000065135   0.0000065135   0.0000065135 
       0.0000065135   0.0000065135   0.0000065135 
       0.0000065135   0.0000065135   0.0000065135 
       0.0000065135   0.0000065135   0.0000065135 
       0.0000065135   0.0000065135   0.0000065135 
       0.0000065135   0.0000065135   0.0000065135 
       0.0000065135   0.0000065135   0.0000065135 
       0.0000065135   0.0000065135   0.0000065135 
       0.0000032568   0.0000032568   0.0000032568 
       0.0000032568   0.0000032568   0.0000032568 
       0.0000065135   0.0000065135   0.0000065135 
       0.0000065135   0.0000065135   0.0000065135 
       0.0000065135   0.0000065135   0.0000065135 
       0.0000065135   0.0000065135   0.0000065135 
       0.0000065135   0.0000065135   0.0000065135 
       0.0000065135   0.0000065135   0.0000065135 
       0.0000065135   0.0000065135   0.0000065135 
       0.0000065135   0.0000065135   0.0000065135 
       0.0000065135   0.0000065135   0.0000065135 
       0.0000065135   0.0000065135   0.0000065135 
       0.0000032568   0.0000032568   0.0000032568 
       0.0000016284   0.0000016284   0.0000016284 
       0.0000032568   0.0000032568   0.0000032568 
       0.0000032568   0.0000032568   0.0000032568 
       0.0000032568   0.0000032568   0.0000032568 
       0.0000032568   0.0000032568   0.0000032568 
       0.0000032568   0.0000032568   0.0000032568 
       0.0000032568   0.0000032568   0.0000032568 
       0.0000032568   0.0000032568   0.0000032568 
       0.0000032568   0.0000032568   0.0000032568 
       0.0000032568   0.0000032568   0.0000032568 
       0.0000032568   0.0000032568   0.0000032568 
       0.0000016284   0.0000016284   0.0000016284 
       0.0000062064   0.0000062064   0.9182100295 
       0.0000060447   0.0000065612   0.9182107775 
       0.0000062626   0.0000069791   0.9182110916 
       0.0000063644   0.0000070876   0.9182111000 
       0.0000064102   0.0000071305   0.9182115778 
       0.0000064300   0.0000071471   0.9182123695 
       0.0000064300   0.0000071471   0.9182123682 
       0.0000064102   0.0000071305   0.9182115741 
       0.0000063644   0.0000070876   0.9182110943 
       0.0000062626   0.0000069791   0.9182110842 
       0.0000060447   0.0000065612   0.9182107690 
       0.0000062064   0.0000062064   0.9182100202 
       0.0000065612   0.0000060447   0.9182107775 
       0.0000060810   0.0000060810   0.9182120354 
       0.0000063639   0.0000065273   0.9182125128 
       0.0000064829   0.0000066349   0.9182122806 
       0.0000065280   0.0000066797   0.9182122497 
       0.0000065511   0.0000066969   0.9182125185 
       0.0000065511   0.0000066969   0.9182125167 
       0.0000065280   0.0000066797   0.9182122447 
       0.0000064829   0.0000066349   0.9182122732 
       0.0000063639   0.0000065273   0.9182125039 
       0.0000060810   0.0000060810   0.9182120261 
       0.0000065612   0.0000060447   0.9182107688 
       0.0000069791   0.0000062626   0.9182110916 
       0.0000065273   0.0000063639   0.9182125128 
       0.0000068307   0.0000068307   0.9182130363 
       0.0000069649   0.0000069357   0.9182126522 
       0.0000070104   0.0000069786   0.9182124960 
       0.0000070368   0.0000069948   0.9182128588 
       0.0000070368   0.0000069948   0.9182128570 
       0.0000070104   0.0000069786   0.9182124911 
       0.0000069649   0.0000069357   0.9182126448 
       0.0000068307   0.0000068307   0.9182130276 
       0.0000065273   0.0000063639   0.9182125038 
       0.0000069791   0.0000062626   0.9182110833 
       0.0000070876   0.0000063644   0.9182111000 
       0.0000066349   0.0000064829   0.9182122806 
       0.0000069357   0.0000069649   0.9182126522 
       0.0000070750   0.0000070750   0.9182122970 
       0.0000071189   0.0000071204   0.9182122907 
       0.0000071476   0.0000071379   0.9182128228 
       0.0000071476   0.0000071379   0.9182128215 
       0.0000071189   0.0000071204   0.9182122870 
       0.0000070750   0.0000070750   0.9182122915 
       0.0000069357   0.0000069649   0.9182126453 
       0.0000066349   0.0000064829   0.9182122731 
       0.0000070876   0.0000063644   0.9182110924 
       0.0000071305   0.0000064102   0.9182115778 
       0.0000066797   0.0000065280   0.9182122497 
       0.0000069786   0.0000070104   0.9182124960 
       0.0000071204   0.0000071189   0.9182122907 
       0.0000071623   0.0000071623   0.9182122431 
       0.0000071924   0.0000071788   0.9182125479 
       0.0000071924   0.0000071788   0.9182125473 
       0.0000071623   0.0000071623   0.9182122415 
       0.0000071204   0.0000071189   0.9182122878 
       0.0000069786   0.0000070104   0.9182124919 
       0.0000066797   0.0000065280   0.9182122441 
       0.0000071305   0.0000064102   0.9182115708 
       0.0000071471   0.0000064300   0.9182123695 
       0.0000066969   0.0000065511   0.9182125185 
       0.0000069948   0.0000070368   0.9182128588 
       0.0000071379   0.0000071476   0.9182128228 
       0.0000071788   0.0000071924   0.9182125479 
       0.0000072095   0.0000072095   0.9182122517 
       0.0000072095   0.0000072095   0.9182122517 
       0.0000071788   0.0000071924   0.9182125477 
       0.0000071379   0.0000071476   0.9182128219 
       0.0000069948   0.0000070368   0.9182128565 
       0.0000066969   0.0000065511   0.9182125142 
       0.0000071471   0.0000064300   0.9182123629 
       0.0000071471   0.0000064300   0.9182123682 
       0.0000066969   0.0000065511   0.9182125167 
       0.0000069948   0.0000070368   0.9182128570 
       0.0000071379   0.0000071476   0.9182128215 
       0.0000071788   0.0000071924   0.9182125473 
       0.0000072095   0.0000072095   0.9182122517 
       0.0000072095   0.0000072095   0.9182122517 
       0.0000071788   0.0000071924   0.9182125471 
       0.0000071379   0.0000071476   0.9182128206 
       0.0000069948   0.0000070368   0.9182128548 
       0.0000066969   0.0000065511   0.9182125125 
       0.0000071471   0.0000064300   0.9182123617 
       0.0000071305   0.0000064102   0.9182115741 
       0.0000066797   0.0000065280   0.9182122447 
       0.0000069786   0.0000070104   0.9182124911 
       0.0000071204   0.0000071189   0.9182122870 
       0.0000071623   0.0000071623   0.9182122415 
       0.0000071924   0.0000071788   0.9182125477 
       0.0000071924   0.0000071788   0.9182125471 
       0.0000071623   0.0000071623   0.9182122398 
       0.0000071204   0.0000071189   0.9182122842 
       0.0000069786   0.0000070104   0.9182124869 
       0.0000066797   0.0000065280   0.9182122392 
       0.0000071305   0.0000064102   0.9182115672 
       0.0000070876   0.0000063644   0.9182110943 
       0.0000066349   0.0000064829   0.9182122732 
       0.0000069357   0.0000069649   0.9182126448 
       0.0000070750   0.0000070750   0.9182122915 
       0.0000071189   0.0000071204   0.9182122878 
       0.0000071476   0.0000071379   0.9182128219 
       0.0000071476   0.0000071379   0.9182128206 
       0.0000071189   0.0000071204   0.9182122842 
       0.0000070750   0.0000070750   0.9182122860 
       0.0000069357   0.0000069649   0.9182126379 
       0.0000066349   0.0000064829   0.9182122657 
       0.0000070876   0.0000063644   0.9182110867 
       0.0000069791   0.0000062626   0.9182110842 
       0.0000065273   0.0000063639   0.9182125039 
       0.0000068307   0.0000068307   0.9182130276 
       0.0000069649   0.0000069357   0.9182126453 
       0.0000070104   0.0000069786   0.9182124919 
       0.0000070368   0.0000069948   0.9182128565 
       0.0000070368   0.0000069948   0.9182128548 
       0.0000070104   0.0000069786   0.9182124869 
       0.0000069649   0.0000069357   0.9182126379 
       0.0000068307   0.0000068307   0.9182130189 
       0.0000065273   0.0000063639   0.9182124950 
       0.0000069791   0.0000062626   0.9182110760 
       0.0000065612   0.0000060447   0.9182107690 
       0.0000060810   0.0000060810   0.9182120261 
       0.0000063639   0.0000065273   0.9182125038 
       0.0000064829   0.0000066349   0.9182122731 
       0.0000065280   0.0000066797   0.9182122441 
       0.0000065511   0.0000066969   0.9182125142 
       0.0000065511   0.0000066969   0.9182125125 
       0.0000065280   0.0000066797   0.9182122392 
       0.0000064829   0.0000066349   0.9182122657 
       0.0000063639   0.0000065273   0.9182124950 
       0.0000060810   0.0000060810   0.9182120169 
       0.0000065612   0.0000060447   0.9182107603 
       0.0000062064   0.0000062064   0.9182100202 
       0.0000060447   0.0000065612   0.9182107688 
       0.0000062626   0.0000069791   0.9182110833 
       0.0000063644   0.0000070876   0.9182110924 
       0.0000064102   0.0000071305   0.9182115708 
       0.0000064300   0.0000071471   0.9182123629 
       0.0000064300   0.0000071471   0.9182123617 
       0.0000064102   0.0000071305   0.9182115672 
       0.0000063644   0.0000070876   0.9182110867 
       0.0000062626   0.0000069791   0.9182110760 
       0.0000060447   0.0000065612   0.9182107603 
       0.0000062064   0.0000062064   0.9182100109 
       0.0000070948   0.0000070948   1.8364171748 
       0.0000071830   0.0000072200   1.8364174097 
       0.0000071942   0.0000073817   1.8364176544 
       0.0000072407   0.0000075156   1.8364178169 
       0.0000072725   0.0000075795   1.8364182603 
       0.0000072908   0.0000076062   1.8364189273 
       0.0000072908   0.0000076062   1.8364189256 
       0.0000072725   0.0000075795   1.8364182551 
       0.0000072407   0.0000075156   1.8364178083 
       0.0000071942   0.0000073817   1.8364176424 
       0.0000071830   0.0000072200   1.8364173947 
       0.0000070948   0.0000070948   1.8364171568 
       0.0000072200   0.0000071830   1.8364174097 
       0.0000073480   0.0000073480   1.8364177661 
       0.0000073254   0.0000075121   1.8364181979 
       0.0000073806   0.0000076505   1.8364185943 
       0.0000074057   0.0000077167   1.8364188149 
       0.0000074289   0.0000077447   1.8364190256 
       0.0000074289   0.0000077447   1.8364190250 
       0.0000074057   0.0000077167   1.8364188129 
       0.0000073806   0.0000076505   1.8364185900 
       0.0000073254   0.0000075121   1.8364181904 
       0.0000073480   0.0000073480   1.8364177545 
       0.0000072200   0.0000071830   1.8364173940 
       0.0000073817   0.0000071942   1.8364176544 
       0.0000075121   0.0000073254   1.8364181979 
       0.0000074789   0.0000074789   1.8364186852 
       0.0000075429   0.0000076137   1.8364188775 
       0.0000075623   0.0000076761   1.8364188659 
       0.0000075901   0.0000077021   1.8364190500 
       0.0000075901   0.0000077021   1.8364190497 
       0.0000075623   0.0000076761   1.8364188646 
       0.0000075429   0.0000076137   1.8364188742 
       0.0000074789   0.0000074789   1.8364186787 
       0.0000075121   0.0000073254   1.8364181875 
       0.0000073817   0.0000071942   1.8364176398 
       0.0000075156   0.0000072407   1.8364178169 
       0.0000076505   0.0000073806   1.8364185943 
       0.0000076137   0.0000075429   1.8364188775 
       0.0000076853   0.0000076853   1.8364187605 
       0.0000076998   0.0000077525   1.8364186121 
       0.0000077313   0.0000077810   1.8364188575 
       0.0000077313   0.0000077810   1.8364188565 
       0.0000076998   0.0000077525   1.8364186087 
       0.0000076853   0.0000076853   1.8364187544 
       0.0000076137   0.0000075429   1.8364188685 
       0.0000076505   0.0000073806   1.8364185824 
       0.0000075156   0.0000072407   1.8364178026 
       0.0000075795   0.0000072725   1.8364182603 
       0.0000077167   0.0000074057   1.8364188149 
       0.0000076761   0.0000075623   1.8364188659 
       0.0000077525   0.0000076998   1.8364186121 
       0.0000077633   0.0000077633   1.8364182058 
       0.0000077972   0.0000077897   1.8364183357 
       0.0000077972   0.0000077897   1.8364183333 
       0.0000077633   0.0000077633   1.8364181990 
       0.0000077525   0.0000076998   1.8364186014 
       0.0000076761   0.0000075623   1.8364188525 
       0.0000077167   0.0000074057   1.8364188002 
       0.0000075795   0.0000072725   1.8364182456 
       0.0000076062   0.0000072908   1.8364189273 
       0.0000077447   0.0000074289   1.8364190256 
       0.0000077021   0.0000075901   1.8364190500 
       0.0000077810   0.0000077313   1.8364188575 
       0.0000077897   0.0000077972   1.8364183357 
       0.0000078248   0.0000078248   1.8364184164 
       0.0000078248   0.0000078248   1.8364184131 
       0.0000077897   0.0000077972   1.8364183263 
       0.0000077810   0.0000077313   1.8364188435 
       0.0000077021   0.0000075901   1.8364190334 
       0.0000077447   0.0000074289   1.8364190088 
       0.0000076062   0.0000072908   1.8364189124 
       0.0000076062   0.0000072908   1.8364189256 
       0.0000077447   0.0000074289   1.8364190250 
       0.0000077021   0.0000075901   1.8364190497 
       0.0000077810   0.0000077313   1.8364188565 
       0.0000077897   0.0000077972   1.8364183333 
       0.0000078248   0.0000078248   1.8364184131 
       0.0000078248   0.0000078248   1.8364184098 
       0.0000077897   0.0000077972   1.8364183239 
       0.0000077810   0.0000077313   1.8364188424 
       0.0000077021   0.0000075901   1.8364190331 
       0.0000077447   0.0000074289   1.8364190082 
       0.0000076062   0.0000072908   1.8364189107 
       0.0000075795   0.0000072725   1.8364182551 
       0.0000077167   0.0000074057   1.8364188129 
       0.0000076761   0.0000075623   1.8364188646 
       0.0000077525   0.0000076998   1.8364186087 
       0.0000077633   0.0000077633   1.8364181990 
       0.0000077972   0.0000077897   1.8364183263 
       0.0000077972   0.0000077897   1.8364183239 
       0.0000077633   0.0000077633   1.8364181921 
       0.0000077525   0.0000076998   1.8364185980 
       0.0000076761   0.0000075623   1.8364188512 
       0.0000077167   0.0000074057   1.8364187983 
       0.0000075795   0.0000072725   1.8364182404 
       0.0000075156   0.0000072407   1.8364178083 
       0.0000076505   0.0000073806   1.8364185900 
       0.0000076137   0.0000075429   1.8364188742 
       0.0000076853   0.0000076853   1.8364187544 
       0.0000076998   0.0000077525   1.8364186014 
       0.0000077313   0.0000077810   1.8364188435 
       0.0000077313   0.0000077810   1.8364188424 
       0.0000076998   0.0000077525   1.8364185980 
       0.0000076853   0.0000076853   1.8364187484 
       0.0000076137   0.0000075429   1.8364188653 
       0.0000076505   0.0000073806   1.8364185782 
       0.0000075156   0.0000072407   1.8364177940 
       0.0000073817   0.0000071942   1.8364176424 
       0.0000075121   0.0000073254   1.8364181904 
       0.0000074789   0.0000074789   1.8364186787 
       0.0000075429   0.0000076137   1.8364188685 
       0.0000075623   0.0000076761   1.8364188525 
       0.0000075901   0.0000077021   1.8364190334 
       0.0000075901   0.0000077021   1.8364190331 
       0.0000075623   0.0000076761   1.8364188512 
       0.0000075429   0.0000076137   1.8364188653 
       0.0000074789   0.0000074789   1.8364186723 
       0.0000075121   0.0000073254   1.8364181800 
       0.0000073817   0.0000071942   1.8364176278 
       0.0000072200   0.0000071830   1.8364173947 
       0.0000073480   0.0000073480   1.8364177545 
       0.0000073254   0.0000075121   1.8364181875 
       0.0000073806   0.0000076505   1.8364185824 
       0.0000074057   0.0000077167   1.8364188002 
       0.0000074289   0.0000077447   1.8364190088 
       0.0000074289   0.0000077447   1.8364190082 
       0.0000074057   0.0000077167   1.8364187983 
       0.0000073806   0.0000076505   1.8364185782 
       0.0000073254   0.0000075121   1.8364181800 
       0.0000073480   0.0000073480   1.8364177429 
       0.0000072200   0.0000071830   1.8364173791 
       0.0000070948   0.0000070948   1.8364171568 
       0.0000071830   0.0000072200   1.8364173940 
       0.0000071942   0.0000073817   1.8364176398 
       0.0000072407   0.0000075156   1.8364178026 
       0.0000072725   0.0000075795   1.8364182456 
       0.0000072908   0.0000076062   1.8364189124 
       0.0000072908   0.0000076062   1.8364189107 
       0.0000072725   0.0000075795   1.8364182404 
       0.0000072407   0.0000075156   1.8364177940 
       0.0000071942   0.0000073817   1.8364176278 
       0.0000071830   0.0000072200   1.8364173791 
       0.0000070948   0.0000070948   1.8364171389 
       0.0000078521   0.0000078521   2.7546242148 
       0.0000078914   0.0000079894   2.7546243778 
       0.0000079242   0.0000080990   2.7546243509 
       0.0000079493   0.0000081934   2.7546243520 
       0.0000079628   0.0000082559   2.7546246958 
       0.0000079738   0.0000082849   2.7546251498 
       0.0000079738   0.0000082849   2.7546251461 
       0.0000079628   0.0000082559   2.7546246852 
       0.0000079493   0.0000081934   2.7546243353 
       0.0000079242   0.0000080990   2.7546243294 
       0.0000078914   0.0000079894   2.7546243530 
       0.0000078521   0.0000078521   2.7546241876 
       0.0000079894   0.0000078914   2.7546243778 
       0.0000079978   0.0000079978   2.7546244159 
       0.0000080190   0.0000081175   2.7546245341 
       0.0000080538   0.0000082156   2.7546247405 
       0.0000080558   0.0000082816   2.7546250994 
       0.0000080729   0.0000083123   2.7546253656 
       0.0000080729   0.0000083123   2.7546253606 
       0.0000080558   0.0000082816   2.7546250850 
       0.0000080538   0.0000082156   2.7546247190 
       0.0000080190   0.0000081175   2.7546245083 
       0.0000079978   0.0000079978   2.7546243888 
       0.0000079894   0.0000078914   2.7546243523 
       0.0000080990   0.0000079242   2.7546243509 
       0.0000081175   0.0000080190   2.7546245341 
       0.0000081270   0.0000081270   2.7546247891 
       0.0000081712   0.0000082173   2.7546249708 
       0.0000081626   0.0000082779   2.7546250947 
       0.0000081851   0.0000083058   2.7546251998 
       0.0000081851   0.0000083058   2.7546251947 
       0.0000081626   0.0000082779   2.7546250801 
       0.0000081712   0.0000082173   2.7546249491 
       0.0000081270   0.0000081270   2.7546247635 
       0.0000081175   0.0000080190   2.7546245078 
       0.0000080990   0.0000079242   2.7546243268 
       0.0000081934   0.0000079493   2.7546243520 
       0.0000082156   0.0000080538   2.7546247405 
       0.0000082173   0.0000081712   2.7546249708 
       0.0000082705   0.0000082705   2.7546249265 
       0.0000082540   0.0000083377   2.7546247556 
       0.0000082810   0.0000083689   2.7546248119 
       0.0000082810   0.0000083689   2.7546248081 
       0.0000082540   0.0000083377   2.7546247445 
       0.0000082705   0.0000082705   2.7546249097 
       0.0000082173   0.0000081712   2.7546249502 
       0.0000082156   0.0000080538   2.7546247181 
       0.0000081934   0.0000079493   2.7546243297 
       0.0000082559   0.0000079628   2.7546246958 
       0.0000082816   0.0000080558   2.7546250994 
       0.0000082779   0.0000081626   2.7546250947 
       0.0000083377   0.0000082540   2.7546247556 
       0.0000083157   0.0000083157   2.7546243567 
       0.0000083459   0.0000083440   2.7546244316 
       0.0000083459   0.0000083440   2.7546244296 
       0.0000083157   0.0000083157   2.7546243509 
       0.0000083377   0.0000082540   2.7546247459 
       0.0000082779   0.0000081626   2.7546250811 
       0.0000082816   0.0000080558   2.7546250821 
       0.0000082559   0.0000079628   2.7546246753 
       0.0000082849   0.0000079738   2.7546251498 
       0.0000083123   0.0000080729   2.7546253656 
       0.0000083058   0.0000081851   2.7546251998 
       0.0000083689   0.0000082810   2.7546248119 
       0.0000083440   0.0000083459   2.7546244316 
       0.0000083759   0.0000083759   2.7546246625 
       0.0000083759   0.0000083759   2.7546246620 
       0.0000083440   0.0000083459   2.7546244295 
       0.0000083689   0.0000082810   2.7546248074 
       0.0000083058   0.0000081851   2.7546251914 
       0.0000083123   0.0000080729   2.7546253519 
       0.0000082849   0.0000079738   2.7546251304 
       0.0000082849   0.0000079738   2.7546251461 
       0.0000083123   0.0000080729   2.7546253606 
       0.0000083058   0.0000081851   2.7546251947 
       0.0000083689   0.0000082810   2.7546248081 
       0.0000083440   0.0000083459   2.7546244296 
       0.0000083759   0.0000083759   2.7546246620 
       0.0000083759   0.0000083759   2.7546246614 
       0.0000083440   0.0000083459   2.7546244276 
       0.0000083689   0.0000082810   2.7546248035 
       0.0000083058   0.0000081851   2.7546251862 
       0.0000083123   0.0000080729   2.7546253469 
       0.0000082849   0.0000079738   2.7546251267 
       0.0000082559   0.0000079628   2.7546246852 
       0.0000082816   0.0000080558   2.7546250850 
       0.0000082779   0.0000081626   2.7546250801 
       0.0000083377   0.0000082540   2.7546247445 
       0.0000083157   0.0000083157   2.7546243509 
       0.0000083459   0.0000083440   2.7546244295 
       0.0000083459   0.0000083440   2.7546244276 
       0.0000083157   0.0000083157   2.7546243451 
       0.0000083377   0.0000082540   2.7546247348 
       0.0000082779   0.0000081626   2.7546250665 
       0.0000082816   0.0000080558   2.7546250677 
       0.0000082559   0.0000079628   2.7546246646 
       0.0000081934   0.0000079493   2.7546243353 
       0.0000082156   0.0000080538   2.7546247190 
       0.0000082173   0.0000081712   2.7546249491 
       0.0000082705   0.0000082705   2.7546249097 
       0.0000082540   0.0000083377   2.7546247459 
       0.0000082810   0.0000083689   2.7546248074 
       0.0000082810   0.0000083689   2.7546248035 
       0.0000082540   0.0000083377   2.7546247348 
       0.0000082705   0.0000082705   2.7546248929 
       0.0000082173   0.0000081712   2.7546249285 
       0.0000082156   0.0000080538   2.7546246965 
       0.0000081934   0.0000079493   2.7546243129 
       0.0000080990   0.0000079242   2.7546243294 
       0.0000081175   0.0000080190   2.7546245083 
       0.0000081270   0.0000081270   2.7546247635 
       0.0000081712   0.0000082173   2.7546249502 
       0.0000081626   0.0000082779   2.7546250811 
       0.0000081851   0.0000083058   2.7546251914 
       0.0000081851   0.0000083058   2.7546251862 
       0.0000081626   0.0000082779   2.7546250665 
       0.0000081712   0.0000082173   2.7546249285 
       0.0000081270   0.0000081270   2.7546247378 
       0.0000081175   0.0000080190   2.7546244820 
       0.0000080990   0.0000079242   2.7546243053 
       0.0000079894   0.0000078914   2.7546243530 
       0.0000079978   0.0000079978   2.7546243888 
       0.0000080190   0.0000081175   2.7546245078 
       0.0000080538   0.0000082156   2.7546247181 
       0.0000080558   0.0000082816   2.7546250821 
       0.0000080729   0.0000083123   2.7546253519 
       0.0000080729   0.0000083123   2.7546253469 
       0.0000080558   0.0000082816   2.7546250677 
       0.0000080538   0.0000082156   2.7546246965 
       0.0000080190   0.0000081175   2.7546244820 
       0.0000079978   0.0000079978   2.7546243618 
       0.0000079894   0.0000078914   2.7546243276 
       0.0000078521   0.0000078521   2.7546241876 
       0.0000078914   0.0000079894   2.7546243523 
       0.0000079242   0.0000080990   2.7546243268 
       0.0000079493   0.0000081934   2.7546243297 
       0.0000079628   0.0000082559   2.7546246753 
       0.0000079738   0.0000082849   2.7546251304 
       0.0000079738   0.0000082849   2.7546251267 
       0.0000079628   0.0000082559   2.7546246646 
       0.0000079493   0.0000081934   2.7546243129 
       0.0000079242   0.0000080990   2.7546243053 
       0.0000078914   0.0000079894   2.7546243276 
       0.0000078520   0.0000078520   2.7546241604 
       0.0000083813   0.0000083813   3.6728309020 
       0.0000084310   0.0000085070   3.6728312149 
       0.0000084543   0.0000085982   3.6728307140 
       0.0000084788   0.0000086751   3.6728305161 
       0.0000084880   0.0000087284   3.6728309788 
       0.0000084966   0.0000087554   3.6728315584 